 *******************************************************************************
 ** Site#: 6541         For non-commercial use only    Version 17.173M 64BITS **
 *******************************************************************************
 ** Cite this program as: MOPAC2016, Version: 17.173M, James J. P. Stewart,   **
 ** Stewart Computational Chemistry, web: HTTP://OpenMOPAC.net. Days left: 130**
 *******************************************************************************
 **                                                                           **
 **                                MOPAC2016                                  **
 **                                                                           **
 *******************************************************************************

                              PM7 CALCULATION RESULTS


 *******************************************************************************
 *  CALCULATION DONE:                                Mon Feb 12 15:17:32 2018  *
 *  PM7        - The PM7 Hamiltonian to be used
 *  TRIPLET    - SPIN STATE DEFINED AS A TRIPLET
 *  UHF        - UNRESTRICTED HARTREE-FOCK CALCULATION
 *  T=         - A TIME OF 172800.0 SECONDS REQUESTED
 *  DUMP=N     - RESTART FILE WRITTEN EVERY  7200.000 SECONDS
 *******************************************************************************
 PM7 UHF TRIPLET
 atom

   ATOM   CHEMICAL          X               Y               Z
  NUMBER   SYMBOL      (ANGSTROMS)     (ANGSTROMS)     (ANGSTROMS)
 
     1       S          0.00000000  *   0.00000000  *   0.00000000  *
 


          CARTESIAN COORDINATES 

    NO.       ATOM         X         Y         Z

     1         S        0.0000    0.0000    0.0000

 General Reference for PM7:
 "Optimization of Parameters for Semiempirical Methods VI: More Modifications to the 
 NDDO Approximations and Re-optimization of Parameters", J. J. P. Stewart, J. Mol. Mod., 1:32, 19 (2013)
 http://www.springerlink.com/openurl.asp?genre=article&id=doi:10.1007/s00894-012-1667-x

           Empirical Formula: S  =     1 atoms



      MOLECULAR POINT GROUP   :   R3  


 TRIPLET STATE CALCULATION


          UHF CALCULATION, NO. OF ALPHA ELECTRONS =    4
                           NO. OF BETA  ELECTRONS =    2

          Geometry optimization using EF

     GRADIENT =  0.00000  IS LESS THAN CUTOFF =  1.00000



 -------------------------------------------------------------------------------
 PM7 UHF TRIPLET
 atom



     GRADIENTS WERE INITIALLY ACCEPTABLY SMALL                
     SCF FIELD WAS ACHIEVED                                   


                              PM7 CALCULATION
                                                       MOPAC2016 (Version: 17.173M)
                                                       Mon Feb 12 15:17:32 2018
                                                       No. of days remaining = 130




          FINAL HEAT OF FORMATION =         66.05128 KCAL/MOL =     276.35856 KJ/MOL


          TOTAL ENERGY            =       -174.17885 EV
          ELECTRONIC ENERGY       =       -174.17885 EV  POINT GROUP:     R3  
          CORE-CORE REPULSION     =          0.00000 EV
          COSMO AREA              =         58.63 SQUARE ANGSTROMS
          COSMO VOLUME            =         42.21 CUBIC ANGSTROMS

          IONIZATION POTENTIAL    =          9.315089 EV
          ALPHA SOMO LUMO (EV)    =         -9.737 -0.963
          BETA  SOMO LUMO (EV)    =         -9.315 -2.636
          NO. OF ALPHA ELECTRONS  =          4
          NO. OF BETA  ELECTRONS  =          2
          MOLECULAR WEIGHT        =         32.0600


          SCF CALCULATIONS        =          1
 
          WALL-CLOCK TIME         =          0.055 SECONDS
          COMPUTATION TIME        =          0.014 SECONDS




   ATOM   CHEMICAL          X               Y               Z
  NUMBER   SYMBOL      (ANGSTROMS)     (ANGSTROMS)     (ANGSTROMS)
 
     1       S          0.00000000  *   0.00000000  *   0.00000000  *

                             CARTESIAN COORDINATES

   1    S        0.000000000     0.000000000     0.000000000


           Empirical Formula: S  =     1 atoms



      MOLECULAR POINT GROUP   :   R3  


          ALPHA EIGENVALUES  
 -25.53660 -10.26563 -10.26563  -9.73749  -0.96339  -0.96339  -0.58439  -0.58439
  -0.45306


           BETA EIGENVALUES 
 -19.51480  -9.31509  -2.63552  -2.63552  -0.22496  -0.22496  -0.22470  -0.22470
  -0.22153


              NET ATOMIC CHARGES AND DIPOLE CONTRIBUTIONS

  ATOM NO.   TYPE          CHARGE      No. of ELECS.   s-Pop       p-Pop       d-Pop       
    1          S           0.000000        6.0000     1.99862     4.00000     0.00138
 DIPOLE           X         Y         Z       TOTAL
 POINT-CHG.     0.000     0.000     0.000     0.000
 HYBRID         0.000     0.000     0.000     0.000
 SUM            0.000     0.000     0.000     0.000


          ATOMIC ORBITAL ELECTRON POPULATIONS

     Atom    s        px        py        pz      x^2-y^2     xz        z^2       yz        xy
    1  S   1.99862   2.00000   1.00000   1.00000   0.00104   0.00000   0.00035   0.00000   0.00000


                    (SZ)    =    1.000000
                    (S**2)  =    2.002683


          ATOMIC ORBITAL SPIN POPULATIONS

    Atom   Total    s     px     py     pz   x^2-y^2  xz     z^2    yz     xy
         Atomic
    1  S  2.0000  0.000  0.000  1.000  1.000 -0.000  0.000 -0.000  0.000  0.000

 **********************
 *                    *
 * JOB ENDED NORMALLY *
 *                    *
 **********************



 TOTAL JOB TIME:             0.06 SECONDS

 == MOPAC DONE ==
