
                                 *****************
                                 * O   R   C   A *
                                 *****************

           --- An Ab Initio, DFT and Semiempirical electronic structure package ---

                  #######################################################
                  #                        -***-                        #
                  #  Department of molecular theory and spectroscopy    #
                  #              Directorship: Frank Neese              #
                  # Max Planck Institute for Chemical Energy Conversion #
                  #                  D-45470 Muelheim/Ruhr              #
                  #                       Germany                       #
                  #                                                     #
                  #                  All rights reserved                #
                  #                        -***-                        #
                  #######################################################


                         Program Version 4.0.0.2 - RELEASE -


 With contributions from (in alphabetic order):
   Daniel Aravena         : Magnetic Properties
   Michael Atanasov       : Ab Initio Ligand Field Theory
   Ute Becker             : Parallelization
   Martin Brehm           : Molecular dynamics
   Dmytro Bykov           : SCF Hessian
   Vijay G. Chilkuri      : MRCI spin determinant printing
   Dipayan Datta          : RHF DLPNO-CCSD density
   Achintya Kumar Dutta   : EOM-CC, STEOM-CC
   Dmitry Ganyushin       : Spin-Orbit,Spin-Spin,Magnetic field MRCI
   Yang Guo               : DLPNO-NEVPT2, CIM, IAO-localization
   Andreas Hansen         : Spin unrestricted coupled pair/coupled cluster methods
   Lee Huntington         : MR-EOM, pCC
   Robert Izsak           : Overlap fitted RIJCOSX, COSX-SCS-MP3, EOM
   Christian Kollmar      : KDIIS, OOCD, Brueckner-CCSD(T), CCSD density
   Simone Kossmann        : Meta GGA functionals, TD-DFT gradient, OOMP2, MP2 Hessian
   Martin Krupicka        : AUTO-CI
   Dagmar Lenk            : GEPOL surface
   Dimitrios Liakos       : Extrapolation schemes; parallel MDCI
   Dimitrios Manganas     : ROCIS; embedding schemes
   Dimitrios Pantazis     : SARC Basis sets
   Taras Petrenko         : DFT Hessian,TD-DFT gradient, ASA, ECA, R-Raman, ABS, FL, XAS/XES, NRVS
   Peter Pinski           : DLPNO-MP2
   Christoph Reimann      : Effective Core Potentials
   Marius Retegan         : Local ZFS, SOC
   Christoph Riplinger    : Optimizer, TS searches, QM/MM, DLPNO-CCSD(T), (RO)-DLPNO pert. Triples
   Tobias Risthaus        : Range-separated hybrids, TD-DFT gradient, RPA, STAB
   Michael Roemelt        : Restricted open shell CIS
   Masaaki Saitow         : Open-shell DLPNO
   Barbara Sandhoefer     : DKH picture change effects
   Kantharuban Sivalingam : CASSCF convergence, NEVPT2, FIC-MRCI
   Georgi Stoychev        : AutoAux
   Boris Wezisla          : Elementary symmetry handling
   Frank Wennmohs         : Technical directorship


 We gratefully acknowledge several colleagues who have allowed us to
 interface, adapt or use parts of their codes:
   Stefan Grimme, W. Hujo, H. Kruse,             : VdW corrections, initial TS optimization,
                  C. Bannwarth                     DFT functionals, gCP, sTDA/sTD-DF
   Ed Valeev                                     : LibInt (2-el integral package), F12 methods
   Garnet Chan, S. Sharma, J. Yang, R. Olivares  : DMRG
   Ulf Ekstrom                                   : XCFun DFT Library
   Mihaly Kallay                                 : mrcc  (arbitrary order and MRCC methods)
   Jiri Pittner, Ondrej Demel                    : Mk-CCSD
   Frank Weinhold                                : gennbo (NPA and NBO analysis)
   Christopher J. Cramer and Donald G. Truhlar   : smd solvation model


 Your calculation uses the libint2 library for the computation of 2-el integrals
 For citations please refer to: http://libint.valeyev.net

 This ORCA versions uses:
   CBLAS   interface :  Fast vector & matrix operations
   LAPACKE interface :  Fast linear algebra routines
   SCALAPACK package :  Parallel linear algebra routines


Your calculation utilizes the basis: cc-pVTZ 
       H, B-Ne : Obtained from the ccRepo (grant-hill.group.shef.ac.uk/ccrepo) Feb. 2017
                 T. H. Dunning, Jr., J. Chem. Phys. 90, 1007 (1989)
            He : Obtained from the ccRepo (grant-hill.group.shef.ac.uk/ccrepo) Feb. 2017
                 D. E. Woon, T. H. Dunning, Jr., J. Chem. Phys. 100, 2975 (1994)
  Li-Be, Na-Mg : Obtained from the ccRepo (grant-hill.group.shef.ac.uk/ccrepo) Feb. 2017
                 B. P. Prascher, D. E. Woon, K. A. Peterson, T. H. Dunning, Jr., A. K. Wilson, Theor. Chem. Acc. 128, 69 (2011)
         Al-Ar : Obtained from the ccRepo (grant-hill.group.shef.ac.uk/ccrepo) Feb. 2017
                 D. E. Woon, T. H. Dunning, Jr., J. Chem. Phys. 98, 1358 (1993)
            Ca : Obtained from the Peterson Research Group Website (tyr0.chem.wsu.edu/~kipeters) Feb. 2017
                 J. Koput, K. A. Peterson, J. Phys. Chem. 106, 9595 (2002)
         Sc-Zn : Obtained from the ccRepo (grant-hill.group.shef.ac.uk/ccrepo) Feb. 2017
                 N. B. Balabanov, K. A. Peterson, J. Chem. Phys. 123, 064107 (2005)
                 N. B. Balabanov, K. A. Peterson, J. Chem. Phys. 125, 074110 (2006)
         Ga-Kr : Obtained from the ccRepo (grant-hill.group.shef.ac.uk/ccrepo) Feb. 2017
                 A. K. Wilson, D. E. Woon, K. A. Peterson, T. H. Dunning, Jr., J. Chem. Phys. 110, 7667 (1999)
             Y : Obtained from the ccRepo (grant-hill.group.shef.ac.uk/ccrepo) Feb. 2017
                 K. A. Peterson, D. Figgen, M. Dolg, H. Stoll, J. Chem. Phys. 126, 124101 (2007)
        Ag, Au : Obtained from the Peterson Research Group Website (tyr0.chem.wsu.edu/~kipeters) Feb. 2017
                 K. A. Peterson, C. Puzzarini, Theor. Chem. Acc. 114, 283 (2005)

Your calculation utilizes the auxiliary basis: cc-pVTZ/C 
  Obtained from the EMSL Basis Set Exchange (bse.pnl.gov) Feb. 2017
  H-He, B-F, Al-Ar, Ga-Kr : F. Weigend, A. Kohn, C. Hattig, J. Chem. Phys. 116, 3175 (2002)
             Li-Be, Na-Mg : C. Haettig, Phys. Chem. Chem. Phys. 7, 59 (2005)
                       Ne : C. Haettig, Phys. Chem. Chem. Phys. 7, 59 (2005)
                            F. Weigend, A. Kohn, C. Hattig, J. Chem. Phys. 116, 3175 (2002)
                    Sc-Zn : J. G. Hill, J. A. Platts, J. Chem. Phys. 128, 044104 (2008)

Your calculation utilizes the auxiliary basis: cc-pVTZ/JK 
  H, B-F, Al-Cl, Ga-Br : Obtained from the TURBOMOLE 7.0 basis set library

WARNING: Overwriting auxiliary coulomb basis with /JK basis!
================================================================================
                                        WARNINGS
                       Please study these warnings very carefully!
================================================================================

Warning: TCutStore was < 0. Adjusted to Thresh (uncritical)

WARNING: your system is open-shell and RHF/RKS was chosen
  ===> : WILL SWITCH to UHF/UKS


WARNING: PNO calculations with unrestricted orbitals require UNOs
  ===> : Switching on UNOs

WARNING: MDCI localization requested with randomization but with NAttempts smaller than number of processes
  ===> : Setting NAttempts = Number of parallel processes!

WARNING: Post HF methods need fully converged wavefunctions
  ===> : Setting SCFConvForced true
         You can overwrite this default with %scf ConvForced false 


INFO   : the flag for use of LIBINT has been found!

================================================================================
                                       INPUT FILE
================================================================================
NAME = C.inp
|  1> ! DLPNO-CCSD(T) cc-pVTZ cc-pVTZ/C cc-pVTZ/JK RIJCOSX TightSCF
|  2> * xyz 0 3 
|  3> C  0.0  0.0  0.0
|  4> *
|  5> 
|  6>                          ****END OF INPUT****
================================================================================

                       ****************************
                       * Single Point Calculation *
                       ****************************

---------------------------------
CARTESIAN COORDINATES (ANGSTROEM)
---------------------------------
  C      0.000000    0.000000    0.000000

----------------------------
CARTESIAN COORDINATES (A.U.)
----------------------------
  NO LB      ZA    FRAG     MASS         X           Y           Z
   0 C     6.0000    0    12.011    0.000000    0.000000    0.000000

--------------------------------
INTERNAL COORDINATES (ANGSTROEM)
--------------------------------
 C      0   0   0     0.000000000000     0.00000000     0.00000000

---------------------------
INTERNAL COORDINATES (A.U.)
---------------------------
 C      0   0   0     0.000000000000     0.00000000     0.00000000

---------------------
BASIS SET INFORMATION
---------------------
There are 1 groups of distinct atoms

 Group   1 Type C   : 18s5p2d1f contracted to 4s3p2d1f pattern {8811/311/11/1}

Atom   0C    basis set group =>   1
-------------------------------
AUXILIARY BASIS SET INFORMATION
-------------------------------
There are 1 groups of distinct atoms

 Group   1 Type C   : 10s7p5d2f1g contracted to 10s7p5d2f1g pattern {1111111111/1111111/11111/11/1}

Atom   0C    basis set group =>   1
------------------------------------------------------------------------------
                           ORCA GTO INTEGRAL CALCULATION
                           -- RI-GTO INTEGRALS CHOSEN --
------------------------------------------------------------------------------

                         BASIS SET STATISTICS AND STARTUP INFO

Gaussian basis set:
 # of primitive gaussian shells          ...   26
 # of primitive gaussian functions       ...   50
 # of contracted shells                  ...   10
 # of contracted basis functions         ...   30
 Highest angular momentum                ...    3
 Maximum contraction depth               ...    8
Auxiliary gaussian basis set:
 # of primitive gaussian shells          ...   25
 # of primitive gaussian functions       ...   79
 # of contracted shells                  ...   25
 # of contracted aux-basis functions     ...   79
 Highest angular momentum                ...    4
 Maximum contraction depth               ...    1
Ratio of auxiliary to basis functions    ...  2.63
Integral package used                  ... LIBINT
 One Electron integrals                  ... done
 Ordering auxiliary basis shells         ... done
 Integral threshhold             Thresh  ...  2.500e-11
 Primitive cut-off               TCut    ...  2.500e-12
 Pre-screening matrix                    ... done
 Shell pair data                         ... 
 Ordering of the shell pairs             ... done (   0.000 sec) 55 of 55 pairs
 Determination of significant pairs      ... done (   0.000 sec)
 Creation of shell pair data             ... done (   0.000 sec)
 Storage of shell pair data              ... done (   0.000 sec)
 Shell pair data done in (   0.000 sec)
 Computing two index integrals           ... done
 Cholesky decomposition of the V-matrix  ... done


Timings:
 Total evaluation time                   ...   0.119 sec (  0.002 min)
 One electron matrix time                ...   0.003 sec (  0.000 min) =  2.8%
 Schwartz matrix evaluation time         ...   0.099 sec (  0.002 min) = 83.5%
 Two index repulsion integral time       ...   0.000 sec (  0.000 min) =  0.1%
 Cholesky decomposition of V             ...   0.000 sec (  0.000 min) =  0.1%
 Three index repulsion integral time     ...   0.000 sec (  0.000 min) =  0.0%

-------------------------------------------------------------------------------
                                 ORCA SCF
-------------------------------------------------------------------------------

------------
SCF SETTINGS
------------
Hamiltonian:
 Ab initio Hamiltonian  Method          .... Hartree-Fock(GTOs)
 RI-approximation to the Coulomb term is turned on
   Number of auxiliary basis functions  .... 79
   RIJ-COSX (HFX calculated with COS-X)).... on


General Settings:
 Integral files         IntName         .... C
 Hartree-Fock type      HFTyp           .... UHF
 Total Charge           Charge          ....    0
 Multiplicity           Mult            ....    3
 Number of Electrons    NEL             ....    6
 Basis Dimension        Dim             ....   30
 Nuclear Repulsion      ENuc            ....      0.0000000000 Eh

Convergence Acceleration:
 DIIS                   CNVDIIS         .... on
   Start iteration      DIISMaxIt       ....    12
   Startup error        DIISStart       ....  0.200000
   # of expansion vecs  DIISMaxEq       ....     5
   Bias factor          DIISBfac        ....   1.050
   Max. coefficient     DIISMaxC        ....  10.000
 Newton-Raphson         CNVNR           .... off
 SOSCF                  CNVSOSCF        .... off
 Level Shifting         CNVShift        .... on
   Level shift para.    LevelShift      ....    0.2500
   Turn off err/grad.   ShiftErr        ....    0.0010
 Zerner damping         CNVZerner       .... off
 Static damping         CNVDamp         .... on
   Fraction old density DampFac         ....    0.7000
   Max. Damping (<1)    DampMax         ....    0.9800
   Min. Damping (>=0)   DampMin         ....    0.0000
   Turn off err/grad.   DampErr         ....    0.1000
 Fernandez-Rico         CNVRico         .... off

SCF Procedure:
 Maximum # iterations   MaxIter         ....   125
 SCF integral mode      SCFMode         .... Direct
   Integral package                     .... LIBINT
 Reset frequeny         DirectResetFreq ....    20
 Integral Threshold     Thresh          ....  2.500e-11 Eh
 Primitive CutOff       TCut            ....  2.500e-12 Eh

Convergence Tolerance:
 Convergence Check Mode ConvCheckMode   .... Total+1el-Energy
 Convergence forced     ConvForced      .... 1
 Energy Change          TolE            ....  1.000e-08 Eh
 1-El. energy change                    ....  1.000e-05 Eh
 DIIS Error             TolErr          ....  5.000e-07


Diagonalization of the overlap matrix:
Smallest eigenvalue                        ... 4.161e-02
Time for diagonalization                   ...    0.000 sec
Threshold for overlap eigenvalues          ... 1.000e-08
Number of eigenvalues below threshold      ... 0
Time for construction of square roots      ...    0.000 sec
Total time needed                          ...    0.001 sec

-------------------
DFT GRID GENERATION
-------------------

General Integration Accuracy     IntAcc      ...  4.340
Radial Grid Type                 RadialGrid  ... Gauss-Chebyshev
Angular Grid (max. acc.)         AngularGrid ... Lebedev-110
Angular grid pruning method      GridPruning ... 3 (G Style)
Weight generation scheme         WeightScheme... Becke
Basis function cutoff            BFCut       ...    1.0000e-11
Integration weight cutoff        WCut        ...    1.0000e-14
Grids for H and He will be reduced by one unit

# of grid points (after initial pruning)     ...   1656 (   0.0 sec)
# of grid points (after weights+screening)   ...   1656 (   0.0 sec)
Grid point division into batches done        ...    0.0 sec
Reduced shell lists constructed in    0.0 sec

Total number of grid points                  ...     1656
Total number of batches                      ...       26
Average number of points per batch           ...       63
Average number of grid points per atom       ...     1656
Average number of shells per batch           ...     9.41 (94.07%)
Average number of basis functions per batch  ...    28.22 (94.07%)
Average number of large shells per batch     ...     8.96 (95.28%)
Average number of large basis fcns per batch ...    26.74 (94.75%)
Maximum spatial batch extension              ...  16.97, 31.36, 31.36 au
Average spatial batch extension              ...   8.48, 10.00, 11.34 au

Time for grid setup =    0.008 sec

------------------------------
INITIAL GUESS: MODEL POTENTIAL
------------------------------
Loading Hartree-Fock densities                     ... done
Calculating cut-offs                               ... done
Setting up the integral package                    ... done
Initializing the effective Hamiltonian             ... done
Starting the Coulomb interaction                   ... done (   0.0 sec)
Reading the grid                                   ... done
Mapping shells                                     ... done
Starting the XC term evaluation                    ... done (   0.0 sec)
Transforming the Hamiltonian                       ... done (   0.0 sec)
Diagonalizing the Hamiltonian                      ... done (   0.0 sec)
Back transforming the eigenvectors                 ... done (   0.0 sec)
Now organizing SCF variables                       ... done
                      ------------------
                      INITIAL GUESS DONE (   0.1 sec)
                      ------------------
--------------------
COSX GRID GENERATION
--------------------

General Integration Accuracy     IntAcc      ...  3.340
Radial Grid Type                 RadialGrid  ... Gauss-Chebyshev
Angular Grid (max. acc.)         AngularGrid ... Lebedev-50
Angular grid pruning method      GridPruning ... 3 (G Style)
Weight generation scheme         WeightScheme... Becke
Basis function cutoff            BFCut       ...    1.0000e-11
Integration weight cutoff        WCut        ...    1.0000e-14
Grids for H and He will be reduced by one unit

# of grid points (after initial pruning)     ...    580 (   0.0 sec)
# of grid points (after weights+screening)   ...    580 (   0.0 sec)
Grid point division into batches done        ...    0.0 sec
Reduced shell lists constructed in    0.0 sec

Total number of grid points                  ...      580
Total number of batches                      ...       10
Average number of points per batch           ...       58
Average number of grid points per atom       ...      580
Average number of shells per batch           ...     9.09 (90.91%)
Average number of basis functions per batch  ...    27.27 (90.91%)
Average number of large shells per batch     ...     9.09 (100.00%)
Average number of large basis fcns per batch ...    27.27 (100.00%)
Maximum spatial batch extension              ...  20.68, 25.32, 25.32 au
Average spatial batch extension              ...   8.88,  9.68, 14.06 au

Overlap Fitting                  UseSFitting ... on
Constructing numerical overlap ... done (      0.0 sec)
Inverting numerical overlap    ... done (      0.0 sec)
Obtaining analytic overlap     ... done (      0.0 sec)
Final contraction and storage  ... done (      0.0 sec)


General Integration Accuracy     IntAcc      ...  3.670
Radial Grid Type                 RadialGrid  ... Gauss-Chebyshev
Angular Grid (max. acc.)         AngularGrid ... Lebedev-50
Angular grid pruning method      GridPruning ... 3 (G Style)
Weight generation scheme         WeightScheme... Becke
Basis function cutoff            BFCut       ...    1.0000e-11
Integration weight cutoff        WCut        ...    1.0000e-14
Grids for H and He will be reduced by one unit

# of grid points (after initial pruning)     ...    706 (   0.0 sec)
# of grid points (after weights+screening)   ...    706 (   0.0 sec)
Grid point division into batches done        ...    0.0 sec
Reduced shell lists constructed in    0.0 sec

Total number of grid points                  ...      706
Total number of batches                      ...       12
Average number of points per batch           ...       58
Average number of grid points per atom       ...      706
Average number of shells per batch           ...     9.23 (92.31%)
Average number of basis functions per batch  ...    27.69 (92.31%)
Average number of large shells per batch     ...     9.23 (100.00%)
Average number of large basis fcns per batch ...    27.69 (100.00%)
Maximum spatial batch extension              ...  22.63, 27.71, 27.71 au
Average spatial batch extension              ...   8.55, 12.28, 13.26 au

Overlap Fitting                  UseSFitting ... on
Constructing numerical overlap ... done (      0.0 sec)
Inverting numerical overlap    ... done (      0.0 sec)
Obtaining analytic overlap     ... done (      0.0 sec)
Final contraction and storage  ... done (      0.0 sec)


General Integration Accuracy     IntAcc      ...  4.010
Radial Grid Type                 RadialGrid  ... Gauss-Chebyshev
Angular Grid (max. acc.)         AngularGrid ... Lebedev-110
Angular grid pruning method      GridPruning ... 3 (G Style)
Weight generation scheme         WeightScheme... Becke
Basis function cutoff            BFCut       ...    1.0000e-11
Integration weight cutoff        WCut        ...    1.0000e-14
Grids for H and He will be reduced by one unit

# of grid points (after initial pruning)     ...   1468 (   0.0 sec)
# of grid points (after weights+screening)   ...   1468 (   0.0 sec)
Grid point division into batches done        ...    0.0 sec
Reduced shell lists constructed in    0.0 sec

Total number of grid points                  ...     1468
Total number of batches                      ...       23
Average number of points per batch           ...       63
Average number of grid points per atom       ...     1468
Average number of shells per batch           ...     9.50 (95.00%)
Average number of basis functions per batch  ...    28.50 (95.00%)
Average number of large shells per batch     ...     9.00 (94.74%)
Average number of large basis fcns per batch ...    27.17 (95.32%)
Maximum spatial batch extension              ...  17.91, 29.68, 29.68 au
Average spatial batch extension              ...   9.34, 10.73, 11.71 au

Overlap Fitting                  UseSFitting ... on
Constructing numerical overlap ... done (      0.0 sec)
Inverting numerical overlap    ... done (      0.0 sec)
Obtaining analytic overlap     ... done (      0.0 sec)
Final contraction and storage  ... done (      0.0 sec)

Time for X-Grid setup             =    0.098 sec
--------------
SCF ITERATIONS
--------------
ITER       Energy         Delta-E        Max-DP      RMS-DP      [F,P]     Damp
               ***  Starting incremental Fock matrix formation  ***
  0    -37.6766729501   0.000000000000 0.01228669  0.00084857  0.1627008 0.7000
  1    -37.6798540047  -0.003181054610 0.01138977  0.00074798  0.1164237 0.7000
                               ***Turning on DIIS***
  2    -37.6823513215  -0.002497316811 0.03044781  0.00196603  0.0826434 0.0000
  3    -37.6851011122  -0.002749790667 0.01018708  0.00055012  0.0075695 0.0000
  4    -37.6885023923  -0.003401280144 0.00789916  0.00035533  0.0030777 0.0000
  5    -37.6876311739   0.000871218481 0.00502843  0.00020290  0.0015556 0.0000
  6    -37.6889424805  -0.001311306642 0.00200335  0.00008070  0.0005018 0.0000
               *** Restarting incremental Fock matrix formation ***
                                   *** Resetting DIIS ***
  7    -37.6901504579  -0.001207977370 0.00794559  0.00029290  0.0383973 0.0000
  8    -37.6919294831  -0.001779025192 0.00373934  0.00012897  0.0094250 0.0000
  9    -37.6916973626   0.000232120417 0.00097769  0.00003539  0.0017278 0.0000
 10    -37.6916757738   0.000021588821 0.00030241  0.00001329  0.0002814 0.0000
 11    -37.6916726162   0.000003157573 0.00004926  0.00000316  0.0000297 0.0000
 12    -37.6916779098  -0.000005293526 0.00002854  0.00000130  0.0000095 0.0000
 13    -37.6916808775  -0.000002967718 0.00000731  0.00000027  0.0000022 0.0000
                            ***DIIS convergence achieved***

               *****************************************************
               *                     SUCCESS                       *
               *           SCF CONVERGED AFTER  14 CYCLES          *
               *****************************************************

Old exchange energy                            =     -5.077365122 Eh
New exchange energy                            =     -5.077248073 Eh
Exchange energy change after final integration =      0.000117050 Eh
Total energy after final integration           =    -37.691564449 Eh
Final COS-X integration done in                =     0.080 sec

----------------
TOTAL SCF ENERGY
----------------

Total Energy       :          -37.69156445 Eh           -1025.63961 eV

Components:
Nuclear Repulsion  :            0.00000000 Eh               0.00000 eV
Electronic Energy  :          -37.69156445 Eh           -1025.63961 eV
One Electron Energy:          -50.45237022 Eh           -1372.87879 eV
Two Electron Energy:           12.76080577 Eh             347.23918 eV

Virial components:
Potential Energy   :          -75.38623216 Eh           -2051.36367 eV
Kinetic Energy     :           37.69466771 Eh            1025.72406 eV
Virial Ratio       :            1.99991767


---------------
SCF CONVERGENCE
---------------

  Last Energy change         ...   -6.2143e-07  Tolerance :   1.0000e-08
  Last MAX-Density change    ...    0.0000e+00  Tolerance :   1.0000e-07
  Last RMS-Density change    ...    0.0000e+00  Tolerance :   5.0000e-09
  Last DIIS Error            ...    6.0657e-07  Tolerance :   5.0000e-07

             **** THE GBW FILE WAS UPDATED (C.gbw) ****
             **** DENSITY FILE WAS UPDATED (C.scfp.tmp) ****
             **** ENERGY FILE WAS UPDATED (C.en.tmp) ****
----------------------
UHF SPIN CONTAMINATION
----------------------

Expectation value of <S**2>     :     2.009037
Ideal value S*(S+1) for S=1.0   :     2.000000
Deviation                       :     0.009037

----------------
ORBITAL ENERGIES
----------------
                 SPIN UP ORBITALS
  NO   OCC          E(Eh)            E(eV) 
   0   1.0000     -11.344414      -308.6972 
   1   1.0000      -0.828129       -22.5345 
   2   1.0000      -0.437710       -11.9107 
   3   1.0000      -0.437710       -11.9107 
   4   0.0000       0.035267         0.9597 
   5   0.0000       0.423571        11.5260 
   6   0.0000       0.423571        11.5260 
   7   0.0000       0.488724        13.2989 
   8   0.0000       0.495824        13.4921 
   9   0.0000       0.820148        22.3174 
  10   0.0000       0.820148        22.3174 
  11   0.0000       0.838864        22.8266 
  12   0.0000       0.838864        22.8266 
  13   0.0000       0.846711        23.0402 
  14   0.0000       2.257077        61.4182 
  15   0.0000       2.257077        61.4182 
  16   0.0000       2.296276        62.4848 
  17   0.0000       2.933983        79.8377 
  18   0.0000       2.935806        79.8873 
  19   0.0000       2.935806        79.8873 
  20   0.0000       2.941484        80.0419 
  21   0.0000       2.941509        80.0425 
  22   0.0000       2.950709        80.2929 
  23   0.0000       2.950709        80.2929 
  24   0.0000       3.230118        87.8960 
  25   0.0000       3.230128        87.8963 
  26   0.0000       3.239114        88.1408 
  27   0.0000       3.239114        88.1408 
  28   0.0000       3.242399        88.2302 
  29   0.0000       4.125034       112.2479 

                 SPIN DOWN ORBITALS
  NO   OCC          E(Eh)            E(eV) 
   0   1.0000     -11.299597      -307.4777 
   1   1.0000      -0.583435       -15.8761 
   2   0.0000       0.068658         1.8683 
   3   0.0000       0.122012         3.3201 
   4   0.0000       0.122012         3.3201 
   5   0.0000       0.515625        14.0309 
   6   0.0000       0.557291        15.1647 
   7   0.0000       0.563564        15.3354 
   8   0.0000       0.563564        15.3354 
   9   0.0000       0.889231        24.1972 
  10   0.0000       0.899777        24.4842 
  11   0.0000       0.899777        24.4842 
  12   0.0000       0.935404        25.4536 
  13   0.0000       0.935404        25.4536 
  14   0.0000       2.322126        63.1883 
  15   0.0000       2.378000        64.7087 
  16   0.0000       2.378000        64.7087 
  17   0.0000       2.974376        80.9369 
  18   0.0000       2.981597        81.1334 
  19   0.0000       2.981597        81.1334 
  20   0.0000       3.003493        81.7292 
  21   0.0000       3.003494        81.7292 
  22   0.0000       3.041209        82.7555 
  23   0.0000       3.041209        82.7555 
  24   0.0000       3.302239        89.8585 
  25   0.0000       3.318851        90.3105 
  26   0.0000       3.318851        90.3105 
  27   0.0000       3.371122        91.7329 
  28   0.0000       3.371131        91.7331 
  29   0.0000       4.186988       113.9337 

                    ********************************
                    * MULLIKEN POPULATION ANALYSIS *
                    ********************************

--------------------------------------------
MULLIKEN ATOMIC CHARGES AND SPIN POPULATIONS
--------------------------------------------
   0 C :    0.000000    2.000000
Sum of atomic charges         :    0.0000000
Sum of atomic spin populations:    2.0000000

-----------------------------------------------------
MULLIKEN REDUCED ORBITAL CHARGES AND SPIN POPULATIONS
-----------------------------------------------------
CHARGE
  0 C s       :     3.997160  s :     3.997160
      pz      :     0.999998  p :     1.999997
      px      :     0.999980
      py      :     0.000018
      dz2     :     0.000710  d :     0.002840
      dxz     :     0.000000
      dyz     :     0.000000
      dx2y2   :     0.002130
      dxy     :     0.000000
      f0      :     0.000001  f :     0.000003
      f+1     :     0.000000
      f-1     :     0.000000
      f+2     :     0.000001
      f-2     :     0.000000
      f+3     :     0.000002
      f-3     :     0.000000

SPIN
  0 C s       :    -0.000209  s :    -0.000209
      pz      :     0.999998  p :     1.999997
      px      :     0.999980
      py      :     0.000018
      dz2     :     0.000052  d :     0.000209
      dxz     :     0.000000
      dyz     :     0.000000
      dx2y2   :     0.000157
      dxy     :     0.000000
      f0      :     0.000001  f :     0.000003
      f+1     :     0.000000
      f-1     :     0.000000
      f+2     :     0.000001
      f-2     :     0.000000
      f+3     :     0.000002
      f-3     :     0.000000


                     *******************************
                     * LOEWDIN POPULATION ANALYSIS *
                     *******************************

-------------------------------------------
LOEWDIN ATOMIC CHARGES AND SPIN POPULATIONS
-------------------------------------------
   0 C :    0.000000    2.000000

----------------------------------------------------
LOEWDIN REDUCED ORBITAL CHARGES AND SPIN POPULATIONS
----------------------------------------------------
CHARGE
  0 C s       :     3.997160  s :     3.997160
      pz      :     0.999998  p :     1.999997
      px      :     0.999980
      py      :     0.000018
      dz2     :     0.000710  d :     0.002840
      dxz     :     0.000000
      dyz     :     0.000000
      dx2y2   :     0.002130
      dxy     :     0.000000
      f0      :     0.000001  f :     0.000003
      f+1     :     0.000000
      f-1     :     0.000000
      f+2     :     0.000001
      f-2     :     0.000000
      f+3     :     0.000002
      f-3     :     0.000000

SPIN
  0 C s       :    -0.000209  s :    -0.000209
      pz      :     0.999998  p :     1.999997
      px      :     0.999980
      py      :     0.000018
      dz2     :     0.000052  d :     0.000209
      dxz     :     0.000000
      dyz     :     0.000000
      dx2y2   :     0.000157
      dxy     :     0.000000
      f0      :     0.000001  f :     0.000003
      f+1     :     0.000000
      f-1     :     0.000000
      f+2     :     0.000001
      f-2     :     0.000000
      f+3     :     0.000002
      f-3     :     0.000000


                      *****************************
                      * MAYER POPULATION ANALYSIS *
                      *****************************

  NA   - Mulliken gross atomic population
  ZA   - Total nuclear charge
  QA   - Mulliken gross atomic charge
  VA   - Mayer's total valence
  BVA  - Mayer's bonded valence
  FA   - Mayer's free valence

  ATOM       NA         ZA         QA         VA         BVA        FA
  0 C      6.0000     6.0000     0.0000     2.0181     0.0000     2.0181

  Mayer bond orders larger than 0.1



                ***UHF Natural Orbitals were saved in C.unso***


                ***UHF Natural Orbitals were saved in C.uno***

QR-MO GENERATION
 Dim     =   30
 Mult    =    3
 NEl     =    6
 N(DOMO) =    2
 N(SOMO) =    2
 N(VMO)  =   26


                ***Quasi-Restricted Orbitals were saved in C.qro***

Orbital Energies of Quasi-Restricted MO's
   0( 2) :   -11.299559 a.u.  -307.477 eV
   1( 2) :    -0.579986 a.u.   -15.782 eV
   2( 1) :    -0.127110 a.u.    -3.459 eV alpha=  -11.911 beta=    4.993
   3( 1) :    -0.127110 a.u.    -3.459 eV alpha=  -11.911 beta=    4.993
   4( 0) :     0.035267 a.u.     0.960 eV
   5( 0) :     0.423571 a.u.    11.526 eV
   6( 0) :     0.423571 a.u.    11.526 eV
   7( 0) :     0.488724 a.u.    13.299 eV
   8( 0) :     0.494616 a.u.    13.459 eV
   9( 0) :     0.820147 a.u.    22.317 eV
  10( 0) :     0.820148 a.u.    22.317 eV
  11( 0) :     0.838864 a.u.    22.827 eV
  12( 0) :     0.838864 a.u.    22.827 eV
  13( 0) :     0.844669 a.u.    22.985 eV
  14( 0) :     2.257077 a.u.    61.418 eV
  15( 0) :     2.257077 a.u.    61.418 eV
  16( 0) :     2.296275 a.u.    62.485 eV
  17( 0) :     2.933983 a.u.    79.838 eV
  18( 0) :     2.935806 a.u.    79.887 eV
  19( 0) :     2.935806 a.u.    79.887 eV
  20( 0) :     2.941484 a.u.    80.042 eV
  21( 0) :     2.941509 a.u.    80.043 eV
  22( 0) :     2.950709 a.u.    80.293 eV
  23( 0) :     2.950709 a.u.    80.293 eV
  24( 0) :     3.230118 a.u.    87.896 eV
  25( 0) :     3.230128 a.u.    87.896 eV
  26( 0) :     3.239114 a.u.    88.141 eV
  27( 0) :     3.239114 a.u.    88.141 eV
  28( 0) :     3.241804 a.u.    88.214 eV
  29( 0) :     4.125012 a.u.   112.247 eV
-------
TIMINGS
-------

Total SCF time: 0 days 0 hours 0 min 5 sec 

Total time                  ....       5.916 sec
Sum of individual times     ....       5.641 sec  ( 95.4%)

Fock matrix formation       ....       5.431 sec  ( 91.8%)
  Split-RI-J                ....       1.208 sec  ( 22.2% of F)
  Chain of spheres X        ....       0.838 sec  ( 15.4% of F)
  COS-X 1 center corr.      ....       0.000 sec  (  0.0% of F)
Diagonalization             ....       0.009 sec  (  0.1%)
Density matrix formation    ....       0.000 sec  (  0.0%)
Population analysis         ....       0.002 sec  (  0.0%)
Initial guess               ....       0.092 sec  (  1.6%)
Orbital Transformation      ....       0.000 sec  (  0.0%)
Orbital Orthonormalization  ....       0.000 sec  (  0.0%)
DIIS solution               ....       0.002 sec  (  0.0%)

   <<< Auxbasis replaced with C.AUXC.tmp (Dim=81) >>> 



------------------------------------------------------------------------------- 
                              ORCA-MATRIX DRIVEN CI                            
------------------------------------------------------------------------------- 


Wavefunction type
-----------------
Correlation treatment                      ...      CCSD     
Single excitations                         ... ON
Orbital optimization                       ... OFF
Calculation of Z vector                    ... OFF
Calculation of Brueckner orbitals          ... OFF
Perturbative triple excitations            ... ON
Calculation of F12 correction              ... OFF
Frozen core treatment                      ... chemical core (2 el)
Reference Wavefunction                     ... UHF
  Alpha-MOs occ    :     1 ...    3 (  3 MO's/  3 electrons)
  Beta-MOs occ     :     1 ...    1 (  1 MO's/  1 electrons)
  Alpha-MOs virt   :     4 ...   29 ( 26 MO's              )
  Beta-MOs virt    :     2 ...   29 ( 28 MO's              )
  Quasi restricted orbitals will be used (this is similar to a ROHF determinant)
Number of AO's                             ...     30
Number of electrons                        ...      6
Number of correlated electrons             ...      4

Algorithmic settings
--------------------
Integral transformation                    ... All integrals via the RI transformation
RHF integral transformation will be used
K(C) Formation                             ... RI-DLPNO
   PNO-Integral Storage                    ... ON DISK
   PNO occupation number cut-off           ... 3.330e-07
   Singles PNO occupation number cut-off   ... 9.990e-09
   PNO Mulliken prescreening cut-off       ... 1.000e-03
   Domain cut-off (Mulliken population)    ... 1.000e-03
   PNO Normalization                       ...    1
Maximum number of iterations               ...        50
Convergence tolerance (max. residuum)      ... 1.000e-05
Level shift for amplitude update           ... 2.000e-01
Maximum number of DIIS vectors             ...         7
DIIS turned on at iteration                ...         0
Damping before turning on DIIS             ...     0.500
Damping after turning on DIIS              ...     0.000
Pair specific amplitude update             ... OFF
Natural orbital iterations                 ... OFF
Perturbative natural orbital generation    ... OFF
Printlevel                                 ... 2

Singles Fock matrix elements calculated using PNOs.

Memory handling:
----------------
Maximum memory for working arrays          ...    512 MB
Data storage in matrix containers          ... UNCOMPRESSED
Data type for integral storage             ... DOUBLE
In-Core Storage of quantities:
   Amplitudes+Sigma Vector      ... NO
   J+K operators                ... NO
   DIIS vectors                 ... NO
   3-external integrals         ... NO
   4-external integrals         ... NO

Localization treatment:
-----------------------
Localization option                        ...    2
Using relative localization threshhold     ... 1.0e-08
Neglect threshold for strong pairs         ... 1.000e-04 Eh
Prescreening threshold for very weak pairs ... 1.000e-06 Eh
Using randomized seed for localization     ... on

Initializing the integral package          ... done
Localizing the QROs
------------------------------------------------------------------------------
                           ORCA ORBITAL LOCALIZATION
------------------------------------------------------------------------------

Input orbitals are from                  ... C.proc0.qro
Output orbitals are to                   ... C.proc0.loc
Max. number of iterations                ... 128
Localizations seeded randomly            ... on
Convergence tolerance                    ... 1.000e-06
Using relative localization threshhold   ... 1.000e-08
Treshold for strong local MOs            ... 9.500e-01
Treshold for bond MOs                    ... 8.500e-01
Operator                                 ... 0
Orbital range for localization           ... 1 to 1
Localization criterion                   ... FOSTER-BOYS
Doing the dipole integrals     ... o.k.
Entering Jacobi type localization:
Using Cholesky decomposition as initial guess.
Initial value of the localization sum :     0.000000
ITERATION   0 : L=    0.0000000000 DL=  0.00e+00 (MAX-T)=   0.000 
ITERATION   1 : L=    0.0000000000 DL=  0.00e+00 (MAX-T)=   0.000 
ITERATION   2 : L=    0.0000000000 DL=  0.00e+00 (MAX-T)=   0.000 
LOCALIZATION SUM CONVERGED


------------------------------------------------------------------------------- 
                    LOCALIZED MOLECULAR ORBITAL COMPOSITIONS                   
------------------------------------------------------------------------------- 

The Mulliken populations for each LMO on each atom are computed
The LMO`s will be ordered according to atom index and type
  (A) Strongly localized MO`s have populations of >=0.950 on one atom
  (B) Two center bond orbitals have populations of >=0.850 on two atoms
  (C) Other MO`s are considered to be `delocalized`

FOUND  -   1 strongly local MO`s
       -   0 two center bond MO`s
       -   0 significantly delocalized MO`s

Rather strongly localized orbitals:
MO   1:   0C  -   1.000000
Localized MO's were stored in: C.proc0.loc

------------------------------------------------------------------------------
                           ORCA ORBITAL LOCALIZATION
------------------------------------------------------------------------------

Input orbitals are from                  ... C.proc0.loc
Output orbitals are to                   ... C.proc0.loc
Max. number of iterations                ... 128
Localizations seeded randomly            ... on
Convergence tolerance                    ... 1.000e-06
Using relative localization threshhold   ... 1.000e-08
Treshold for strong local MOs            ... 9.500e-01
Treshold for bond MOs                    ... 8.500e-01
Operator                                 ... 0
Orbital range for localization           ... 2 to 3
Localization criterion                   ... FOSTER-BOYS
Doing the dipole integrals     ... o.k.
Entering Jacobi type localization:
Using Cholesky decomposition as initial guess.
Initial value of the localization sum :     0.000000
ITERATION   0 : L=    0.0000000000 DL=  0.00e+00 (MAX-T)=   0.000 
ITERATION   1 : L=    0.0000000000 DL=  0.00e+00 (MAX-T)=   0.000 
ITERATION   2 : L=    0.0000000000 DL=  0.00e+00 (MAX-T)=   0.000 
LOCALIZATION SUM CONVERGED


------------------------------------------------------------------------------- 
                    LOCALIZED MOLECULAR ORBITAL COMPOSITIONS                   
------------------------------------------------------------------------------- 

The Mulliken populations for each LMO on each atom are computed
The LMO`s will be ordered according to atom index and type
  (A) Strongly localized MO`s have populations of >=0.950 on one atom
  (B) Two center bond orbitals have populations of >=0.850 on two atoms
  (C) Other MO`s are considered to be `delocalized`

FOUND  -   2 strongly local MO`s
       -   0 two center bond MO`s
       -   0 significantly delocalized MO`s

Rather strongly localized orbitals:
MO   3:   0C  -   1.000000
MO   2:   0C  -   1.000000
Localized MO's were stored in: C.proc0.loc

Localizing the core orbitals
------------------------------------------------------------------------------
                           ORCA ORBITAL LOCALIZATION
------------------------------------------------------------------------------

Input orbitals are from                  ... C.proc0.loc
Output orbitals are to                   ... C.proc0.loc
Max. number of iterations                ... 128
Localizations seeded randomly            ... on
Convergence tolerance                    ... 1.000e-06
Using relative localization threshhold   ... 1.000e-08
Treshold for strong local MOs            ... 9.500e-01
Treshold for bond MOs                    ... 8.500e-01
Operator                                 ... 0
Orbital range for localization           ... 0 to 0
Localization criterion                   ... FOSTER-BOYS
Doing the dipole integrals     ... o.k.
Entering Jacobi type localization:
Using Cholesky decomposition as initial guess.
Initial value of the localization sum :     0.000000
ITERATION   0 : L=    0.0000000000 DL=  0.00e+00 (MAX-T)=   0.000 
ITERATION   1 : L=    0.0000000000 DL=  0.00e+00 (MAX-T)=   0.000 
ITERATION   2 : L=    0.0000000000 DL=  0.00e+00 (MAX-T)=   0.000 
LOCALIZATION SUM CONVERGED


------------------------------------------------------------------------------- 
                    LOCALIZED MOLECULAR ORBITAL COMPOSITIONS                   
------------------------------------------------------------------------------- 

The Mulliken populations for each LMO on each atom are computed
The LMO`s will be ordered according to atom index and type
  (A) Strongly localized MO`s have populations of >=0.950 on one atom
  (B) Two center bond orbitals have populations of >=0.850 on two atoms
  (C) Other MO`s are considered to be `delocalized`

FOUND  -   1 strongly local MO`s
       -   0 two center bond MO`s
       -   0 significantly delocalized MO`s

Rather strongly localized orbitals:
MO   0:   0C  -   1.000000
Localized MO's were stored in: C.proc0.loc

Re-Reading QRO orbitals for the actual calculation
  ... duplicating orbitals and energies 
  ... adjusting occupation numbers
Warning: internal orbitals are localized - no re-canonicalization of internal orbitals

--------------
DLPNO SETTINGS
--------------

TCutMKN:           1.000e-03
TCutPAO:           1.000e-03
TCutPNO:           3.330e-07
TCutPNOSingles:    9.990e-09
TCutPAOExt:        1.000e-01
TCutPairs:         1.000e-04
TCutPre:           1.000e-06
TCutDOij:          1.000e-05
PAO overlap thresh 1.000e-08
Number of singly-occupied orbitals: 2
TCutTNO:           1.000e-09
TCutMP2Pairs:      1.000e-05
TCutDOStrong:      2.000e-03
TCutMKNStrong:     1.000e-02
TCutMKNWeak:       1.000e-01
TCutDOWeak:        4.000e-03
NTCutTNO:          1
Using PNOs for Singles Fock computation
--------------------------
Reading one-electron matrix from C.H.tmp ...done
Entering RIJCOSX section for the open-shell Fock matrices
Retrieving the Coulomb fitting basis              ... done
Calculating the full J-matrix                     ... done
Calculating all K-matrices                        ... done
RIJCOSX finished
Reference energy                           ...    -37.686611541
Calculating differential overlap integrals (occ,PAO) ... ok
 >> Construction of the PNO with the Koopmans (K)-matrix << 
Entering the RI transformation section

-----------------
RI-TRANSFORMATION (AUX index driven)
-----------------

Dimension of the orbital-basis         ... 30
Dimension of the aux-basis             ... 81
Transformation of internal MOs         ...    2-   3
Number Format for Storage              ... Double (8 Byte)
Integral mode                          ... Direct

First Phase: integral generation and transformation of MO indices
  Aux angular momentum 0               ... done (    0.001 sec)
  Aux angular momentum 1               ... done (    0.001 sec)
  Aux angular momentum 2               ... done (    0.001 sec)
  Aux angular momentum 3               ... done (    0.001 sec)
  Aux angular momentum 4               ... done (    0.000 sec)
Closing buffer VIJ ( 0.00 GB; CompressionRatio= 0.67)
  Phase 1 completed in     0.069 sec
Second Phase: sorting and transformation of aux index

IJ-Transformation
Memory available                       ... 512 MB 
Max. # MO pairs treated in a batch     ... 2    
# of internal orbitals                 ... 2
# batches for internal orbitals        ... 1
Closing buffer IJV ( 0.00 GB; CompressionRatio= 0.98)
(ij|v) transformation done in     0.000 sec

  Phase 2 completed in     0.000 sec
RI-Integral transformation completed in     0.069 sec

-----------------------
RI-FORMATION OF (ij|kl)
-----------------------

Max core memory to be used            ... 512 MB
Memory needed per MO pair             ...   0.0 MB
# of MO pairs included in trafo       ... 3
# of MO pairs treated in a batch      ... 3
# of batches needed                   ... 1
Data format used                      ... DOUBLE
 done (    0.000 sec)
Closing buffer JIJ ( 0.00 GB; CompressionRatio= 0.67)
(ij|kl) transformation completed in     0.000 sec
     ... leaving the RI transformation section
 >> 4-active ERIs are generated & stored in-core fast memory 
 >> End construction..
F12 correction will NOT be calculated
 >>>>>>>>>>>>>>>>>>>>>>>>>>>>>>>>>>>>> 
       Dipole-based Prescreening       
 <<<<<<<<<<<<<<<<<<<<<<<<<<<<<<<<<<<<< 
Threshold for domain construction in prescreening:
   TCutDO    ...     1.0e-02
--------------------------
ELECTRON PAIR PRESCREENING
--------------------------

PAO based multipole pair screening          .... used
   TCutDOij = 1.000000e-05
   TCutPre  = 1.000000e-06
 done

sum of pair energies estimated for screened out pairs ...       0.000000000000 Eh
                                                           
  __   __        __   ___     __        ___  __   __       
 /  ` |__) |  | |  \ |__     / _` |  | |__  /__` /__`     
 \__, |  \ \__/ |__/ |___    \__> \__/ |___ .__/ .__/ 
                                                           

Parameters for the crude guess:
   TScaleDOMP2PreScr   : 2.000e+00
   TScaleMKNMP2PreScr  : 1.000e+01
   TScalePNOMP2PreScr  : 1.000e+00
   TScalePairsMP2PreScr: 1.000e+00
   PAO overlap thresh    1.000e-08
Thresholds for map construction and integral transformation for crude MP2:
   TCutMKN                    ...     1.0e-02
   TCutDO                     ...     2.0e-02
   TCutPairs                  ...     1.0e-04
   TCutPairs_CrudeMP2         ...     1.0e-04
   TCutPNO_CrudeMP2           ...     3.3e-07
   TCutPNOSingles_CrudeMP2    ...     1.0e-08

------------------------------
LOCAL RI (xy|k) TRANSFORMATION
------------------------------

Dimension of OBS basis                 ... 30
Dimension of (OBS)PAOs                 ... 30
Dimension of the aux-basis             ... 81
Integral mode                          ... Direct

First Phase: integral generation and first transformation of MO indices
 number of shell sets computed                       =               1265
 number of shell sets in domains (without screening) =               1265
 number of shell sets without domains or screening   =               1265
Closing buffer C.kxy_op0.tmp.proc0 ( 0.00 GB; CompressionRatio= 0.98)
Local 3-center integral transformation (op=0) completed in     0.021 sec

-----------------------------------------
   _  _______   __    ___  _  ______     
  / |/ / __/ | / /___/ _ \/ |/ / __ \  
 /    / _/ | |/ /___/ ___/    / /_/ /    
/_/|_/___/ |___/   /_/  /_/|_/\____/    
                                         
                for open-shell molecules 
-----------------------------------------


 ==> UMP guess in NEV-PNO space 

Truncation parameters                       .... 
    PAOOverlapThresh     =        1.000e-08
    TCutPairs            =        1.000e-04
    TCutMKN              =        1.000e-02
    TCutDO               =        1.000e-02
    TCutCMO              =        1.000e-03
    TCutCPAO             =        1.000e-03
    TCutPNO              =        3.330e-07
    TScaleTCutPNO_SS     =        1.000e+00
    TScaleTCutPNO_SD     =        1.000e+00
    TCutDO_Crude         =        2.000e-02
    TCutMKN_Crude        =        1.000e-02
    TCutPairs_Crude      =        1.000e-04
    TCutPNO_Crude        =        3.330e-07
Spin component scaling in ijab excitation            .... not used

Formation of guess energy and open-shell PNO.

NEV-PNO operators..
  E(ij->ab)
  E(ip->ab)
  E(pq->ab)
  E(ij->pq)
  E(pq->ra)
  E(ip->qr)
  E(ip->aq) and E(ip->qa)

 Norm of Semi-Internal Fock Operators ...   0.0000779394
  ==> Semi-internal excitations detected 

   .... Finished loop over pairs

 # of CC pairs      ... [7/7] 
 # of PT pairs      ... [0/7] 
 # of skipped pairs ... [0/7] 

 Initial PAO correlation energy (all pairs)    ...  -0.0735403913 Eh
 Energy constituents in PAO basis (Eh):
  | Vijab(+0) ...  -0.0177866670
  | Viab (-1) ...  -0.0267286057
  | Vab  (-2) ...  -0.0060143693
  | Va   (-1) ...  -0.0000379833
  | Vija (+1) ...  -0.0012709808
  | Via  (+0) ...  -0.0217017852
 Initial PNO correlation energy                ...  -0.0725265114 Eh
 Energy constituents in PNO basis (Eh):
  | Vijab(+0) ...  -0.0177866670 (err=  0.0000000000)
  | Viab (-1) ...  -0.0257147259 (err=  0.0010138798)
  | Vab  (-2) ...  -0.0060143693 (err=  0.0000000000)
  | Va   (-1) ...  -0.0000379833 (err=  0.0000000000)
  | Vija (+1) ...  -0.0012709808 (err=  0.0000000000)
  | Via  (+0) ...  -0.0217017852 (err= -0.0000000000)
 Sum of total truncation errors ...   0.0010138798 Eh
  | Pair screening ...   0.0000000000 Eh
  | PNO truncation ...   0.0010138798 Eh

 UMP2 correlation energy (PAO) ...  -0.0686053085
  | alpha-alpha ...  -0.0127120811 (NP_aa=    3)
  | alpha-beta  ...  -0.0558932274 (NP_ab=    3)
  | beta -beta  ...   0.0000000000 (NP_bb=    0)
 UMP2 correlation energy (PNO) ...  -0.0676026639
  | alpha-alpha ...  -0.0120443375 (err=  0.0006677436, NP_aa=    3)
  | alpha-beta  ...  -0.0555583264 (err=  0.0003349010, NP_ab=    3)
  | beta -beta  ...   0.0000000000 (err=  0.0000000000, NP_bb=    0)
 Sum of total UMP2 truncation errors ...   0.0010026446 Eh
  | Pair screening ...   0.0000000000 Eh
  | PNO truncation ...   0.0010026446 Eh
 Timing for NEV-PNO construction (sec.)
  | Intermediate construction  ..            0.001
  | Amplitude construction     ..            0.000
  | Total time                 ..            0.001
 Making pair pair interaction lists ...      ok
                                                 
  ___         ___     __        ___  __   __     
 |__  | |\ | |__     / _` |  | |__  /__` /__`   
 |    | | \| |___    \__> \__/ |___ .__/ .__/ 
                                                 

Thresholds for map construction and integral transformation:
   TCutMKN   ...     1.0e-03
   TCutDO    ...     1.0e-02
   TCutCMO   ...     1.0e-03
   TCutCPAO  ...     1.0e-03

Thresholds for map construction and integral transformation for strong Triples:
   TCutMKN   ...     1.0e-02
   TCutDO    ...     2.0e-02
   TCutCMO   ...     1.0e-03
   TCutCPAO  ...     1.0e-03

Thresholds for map construction and integral transformation for weak Triples:
   TCutMKN   ...     1.0e-01
   TCutDO    ...     4.0e-02
   TCutCMO   ...     1.0e-03
   TCutCPAO  ...     1.0e-03


------------------------------
LOCAL RI (xy|k) TRANSFORMATION
------------------------------

Dimension of OBS basis                 ... 30
Dimension of (OBS)PAOs                 ... 30
Dimension of the aux-basis             ... 81
Integral mode                          ... Direct

First Phase: integral generation and first transformation of MO indices
 number of shell sets computed                       =               1265
 number of shell sets in domains (without screening) =               1265
 number of shell sets without domains or screening   =               1265
Closing buffer C.kxy_op0.tmp.proc0 ( 0.00 GB; CompressionRatio= 0.98)
Local 3-center integral transformation (op=0) completed in     0.020 sec

 ==> UMP guess in NEV-PNO space 

Truncation parameters                       .... 
    PAOOverlapThresh     =        1.000e-08
    TCutPairs            =        1.000e-04
    TCutMKN              =        1.000e-03
    TCutDO               =        1.000e-02
    TCutCMO              =        1.000e-03
    TCutCPAO             =        1.000e-03
    TCutPNO              =        3.330e-07
    TScaleTCutPNO_SS     =        1.000e+00
    TScaleTCutPNO_SD     =        1.000e+00
    TScaleTCutPairs_Somo =        3.300e-01
    TCutPairs_MP2        =        1.000e-05
Spin component scaling in ijab excitation            .... not used

Formation of guess energy and open-shell PNO.

NEV-PNO operators..
  E(ij->ab)
  E(ip->ab)
  E(pq->ab)
  E(ij->pq)
  E(pq->ra)
  E(ip->qr)
  E(ip->aq) and E(ip->qa)

   .... Finished loop over pairs

 # of surviving pairs is 7 out of 7 pairs 

 Initial PAO correlation energy (all pairs)    ...  -0.0735403913 Eh
 Energy constituents in PAO basis (Eh):
  | Vijab(+0) ...  -0.0177866670
  | Viab (-1) ...  -0.0267286057
  | Vab  (-2) ...  -0.0060143693
  | Va   (-1) ...  -0.0000379833
  | Vija (+1) ...  -0.0012709808
  | Via  (+0) ...  -0.0217017852
 Initial PNO correlation energy                ...  -0.0725265114 Eh
 Energy constituents in PNO basis (Eh):
  | Vijab(+0) ...  -0.0177866670 (err=  0.0000000000)
  | Viab (-1) ...  -0.0257147259 (err=  0.0010138798)
  | Vab  (-2) ...  -0.0060143693 (err=  0.0000000000)
  | Va   (-1) ...  -0.0000379833 (err=  0.0000000000)
  | Vija (+1) ...  -0.0012709808 (err=  0.0000000000)
  | Via  (+0) ...  -0.0217017852 (err= -0.0000000000)
 Sum of total truncation errors ...   0.0010138798 Eh
  | Pair screening ...   0.0000000000 Eh
  | PNO truncation ...   0.0010138798 Eh

 UMP2 correlation energy (PAO) ...  -0.0686053085
  | alpha-alpha ...  -0.0127120811 (NP_aa=    3)
  | alpha-beta  ...  -0.0558932274 (NP_ab=    3)
  | beta -beta  ...   0.0000000000 (NP_bb=    0)
 UMP2 correlation energy (PNO) ...  -0.0676026639
  | alpha-alpha ...  -0.0120443375 (err=  0.0006677436, NP_aa=    3)
  | alpha-beta  ...  -0.0555583264 (err=  0.0003349010, NP_ab=    3)
  | beta -beta  ...   0.0000000000 (err=  0.0000000000, NP_bb=    0)
 Sum of total UMP2 truncation errors ...   0.0010026446 Eh
  | Pair screening ...   0.0000000000 Eh
  | PNO truncation ...   0.0010026446 Eh
 Timing for NEV-PNO construction (sec.)
  | Intermediate construction  ..            0.001
  | Amplitude construction     ..            0.000
  | Total time                 ..            0.001
 Making pair pair interaction lists ...      ok
 Total size for 2-ext PNO integrals ...      0.0 MB
Checking the number of SOMO/SOMO doubles PNOs ...  No PNOs should be truncated!


------------------------------
LOCAL RI (xy|k) TRANSFORMATION
------------------------------

Dimension of OBS basis                 ... 30
Dimension of (OBS)PAOs                 ... 30
Dimension of the aux-basis             ... 81
Integral mode                          ... Direct

First Phase: integral generation and first transformation of MO indices
 number of shell sets computed                       =               1265
 number of shell sets in domains (without screening) =               1265
 number of shell sets without domains or screening   =               1265
Closing buffer C.VABPAO.tmp.proc0 ( 0.00 GB; CompressionRatio= 1.00)
Local 3-center integral transformation (op=0) completed in     0.021 sec

------------------------------
LOCAL RI (xy|k) TRANSFORMATION
------------------------------

Dimension of OBS basis                 ... 30
Dimension of (OBS)PAOs                 ... 30
Dimension of the aux-basis             ... 81
Integral mode                          ... Direct

First Phase: integral generation and first transformation of MO indices
 number of shell sets computed                       =               1265
 number of shell sets in domains (without screening) =               1265
 number of shell sets without domains or screening   =               1265
Closing buffer C.kxy_op0.tmp.proc0 ( 0.00 GB; CompressionRatio= 0.86)
Local 3-center integral transformation (op=0) completed in     0.020 sec


-------------------------------------
Pair Pair Term precalculation with     
RI-(ij|mn) and (im|jn) transformation  
ON THE FLY                             
-------------------------------------

   IBatch   1 (of   1)              ... done (    0.052 sec)
Total EXT                           ...           0.052 sec

---------------------
RI-PNO TRANSFORMATION
---------------------

Total Number of PNOs                   ...   168
Total Number of IJ-PNOs                ...    28
Total Number of IP-PNOs                ...    44
Total Number of PQ-PNOs                ...    96
Total Number of IJ-pairs               ...     1
Total Number of PI-pairs               ...     2
Total Number of PQ-pairs               ...     4
Average number of PNOs per pair        ...    24
Maximal number of PNOs per pair        ...    28
>> Statistics for ij-pairs..
   #pairs with  1 -  5 PNOs   :    0
   #pairs with  6 - 10 PNOs   :    0
   #pairs with 11 - 15 PNOs   :    0
   #pairs with 16 - 20 PNOs   :    0
   #pairs with 21 - 25 PNOs   :    0
   #pairs with 26 - 30 PNOs   :    1
   #pairs with 31 - 35 PNOs   :    0
   #pairs with 36 - 40 PNOs   :    0
   #pairs with 41 - 45 PNOs   :    0
   #pairs with 46 - 50 PNOs   :    0
>> Statistics for ip-pairs..
   #pairs with  1 -  5 PNOs   :    0
   #pairs with  6 - 10 PNOs   :    0
   #pairs with 11 - 15 PNOs   :    0
   #pairs with 16 - 20 PNOs   :    0
   #pairs with 21 - 25 PNOs   :    2
   #pairs with 26 - 30 PNOs   :    0
   #pairs with 31 - 35 PNOs   :    0
   #pairs with 36 - 40 PNOs   :    0
   #pairs with 41 - 45 PNOs   :    0
   #pairs with 46 - 50 PNOs   :    0
>> Statistics for pq-pairs..
   #pairs with  1 -  5 PNOs   :    0
   #pairs with  6 - 10 PNOs   :    0
   #pairs with 11 - 15 PNOs   :    0
   #pairs with 16 - 20 PNOs   :    2
   #pairs with 21 - 25 PNOs   :    0
   #pairs with 26 - 30 PNOs   :    2
   #pairs with 31 - 35 PNOs   :    0
   #pairs with 36 - 40 PNOs   :    0
   #pairs with 41 - 45 PNOs   :    0
   #pairs with 46 - 50 PNOs   :    0

Generation of (ij|ab)[P] integrals            ... on
Generation of (ia|bc)[P],(ja|bc)[P] integrals ... on
Storage of 3 and 4 external integrals         ... on
Generation of ALL (ka|bc)[P] integrals        ... on
Keep RI integrals in memory                   ... off

Ibatch:  1 (of  1)
Starting 2-4 index PNO integral generation ... done

Timings:
Total PNO integral transformation time     ...          0.023 sec
Size of the 3-external file                ...         0 MB
Size of the 4-external file                ...         2 MB
Size of the IKJL file                      ...         0 MB
Size of the all 3-external file            ...         1 MB
Size of the 1-external file                ...         0 MB

Size of the PAO/PNO coefficient matrices   ...       0.0 MB

Making pair/pair overlap matrices          ... done (    0.001 sec)
Size of the pair overlap file              ...       0.0 MB
Total # unrestricted pairs ...          6
  # of alpha-alpha pairs   ...          3
  # of alpha-beta pairs    ...          3
  # of beta-beta pairs     ...          0
Constructing the guess amplitudes          ... done (    0.000 sec)

-------------------------
FINAL STARTUP INFORMATION
-------------------------

E(0)                                       ...    -37.686611541
E(SL-UMP2 in NEV-PNO space)                ...     -0.067602664
Initial E(tot)                             ...    -37.754214205
<T|T>                                      ...      0.023513375
Number of unrestricted pairs included      ... 6
Total number of pairs                      ... 6
----------------------------------------------------------
                     OPEN-SHELL COUPLED CLUSTER ITERATIONS
----------------------------------------------------------

Number of PNO amplitudes to be optimized        ...             2774
Number of canonical amplitudes for strong pairs ...             4318
Untruncated number of canonical amplitudes      ...             4318

Iter       E(tot)           E(Corr)          Delta-E          Residual     Time
  0    -37.758342355     -0.070728170     -0.003125506      0.037440653    0.04
                           *** Turning on DIIS ***
  1    -37.770997846     -0.083383661     -0.012655491      0.021336839    0.04
  2    -37.776890201     -0.089276015     -0.005892355      0.008688195    0.04
  3    -37.778026215     -0.090412030     -0.001136014      0.003050847    0.04
  4    -37.778335021     -0.090720836     -0.000308806      0.000600362    0.04
  5    -37.778375223     -0.090761038     -0.000040202      0.000094292    0.04
  6    -37.778376951     -0.090762766     -0.000001728      0.000014591    0.04
  7    -37.778376408     -0.090762223      0.000000543      0.000005723    0.04
               --- The CCSD iterations have converged ---

E(0)                                       ...    -37.686611541
E(CORR)(strong-pairs)                      ...     -0.090762223
E(CORR)(weak-pairs)                        ...     -0.001002645
E(CORR)(corrected)                         ...     -0.091764868
E(TOT)                                     ...    -37.778376408
Singles norm <S|S>**1/2                    ...      0.036969172 ( 0.027015454, 0.009953718)
T1 diagnostic                              ...      0.018484586

----------------------
LARGEST PNO AMPLITUDES
----------------------
   1a->  4a   1b->  4b       0.111062
   1a->  7a   1b->  4b       0.053576
   1a->  4a   1b->  7b       0.051574
   2a->  9a   1b->  3b       0.045078
   3a->  9a   1b->  2b       0.045078
   2a-> 10a   1b->  2b       0.044809
   3a-> 10a   1b->  3b       0.044809
   2a->  8a   1b->  4b       0.042720
   3a->  8a   1b->  4b       0.042720
   3a->  4a   2a->  5a       0.037255
   3a->  5a   2a->  4a       0.037255
   2a->  5a   1b->  6b       0.035775
   3a->  5a   1b->  6b       0.035775
   1a->  9a  -1b-> -1b       0.035229
   2a->  4a   1b->  8b       0.029440
   3a->  4a   1b->  8b       0.029440

Total # unrestricted pairs ...          0
  # of alpha-alpha pairs   ...          0
  # of alpha-beta pairs    ...          0
  # of beta-beta pairs     ...          0

-------------------------------------------
DLPNO BASED TRIPLES CORRECTION
-------------------------------------------

Singles multiplier          ...  1.000000
TCutTNO                     ... 1.000e-09
TCutMP2Pairs                ... 1.000e-05
TCutDOStrong                ... 2.000e-03
TCutMKNStrong               ... 1.000e-02
TCutDOWeak                  ... 4.000e-03
TCutMKNWeak                 ... 1.000e-01
NTCutTNO                    ... 1

Number of Triples that are to be computed         ...        12

 . . . . . . . . .
10% done  
20% done  
30% done  
40% done  
          Batch   1   done (      0.008 sec)

Triples-Correction TCutTNO=   1.000e-09 (NWeakPairs = 0  1  2  3)  -0.002006352283    0.000000000000    0.000000000000    0.000000000000
Triples-Correction  -0.002006352283

Triples timings:
Total time                      ...     0.011 sec

Triples List generation         ...     0.000 sec
TNO generation                  ...     0.003 sec
Pair density generation         ...     0.000 sec
Look up tables                  ...     0.000 sec
Generating 3-index integrals    ...     0.006 sec
Make 4-ind.int. from 3-ind.int  ...     0.000 sec
Projecting amplitudes (D + S)   ...     0.001 sec
Sorting integrals for spin cases...     0.000 sec
Calculate W0/W1                 ...     0.001 sec
Energy contr. (sum over a,b,c)  ...     0.000 sec

Everything after 3-index        ...     0.005 sec

Energy contribution AAA         ...     0.000 sec
Energy contribution AAB         ...     0.001 sec
Energy contribution ABB         ...     0.000 sec
Energy contribution BBB         ...     0.000 sec
prep                ...     0.000 sec
makeTTNO            ...     0.001 sec
copyij              ...     0.000 sec
copyil              ...     0.000 sec
transposeij         ...     0.000 sec
newMatInDoubleProj  ...     0.000 sec
BlasInDoubleProj    ...     0.000 sec
ProjSingles         ...     0.000 sec
ProjDoubles         ...     0.001 sec
overall Doubles for projection      ... 25
used Doubles for projection         ... 25


Number of Triples   (0, 1, 2, 3 weak pairs; overall):      3       0       0       0  (     3)
Number of Atoms     (0, 1, 2, 3 weak pairs; overall):    1.0     0.0     0.0     0.0  (     1)
Number of PAOs      (0, 1, 2, 3 weak pairs; overall):   32.0     0.0     0.0     0.0  (    30)
Number of AuxFcns   (0, 1, 2, 3 weak pairs; overall):   81.0     0.0     0.0     0.0  (    81)
Number of TNOs (0, 1, 2, 3 weak pairs         ):   27.3     0.0     0.0     0.0
Aver. Number of NTNO, Atoms, PAOs, AuxFcns / Triples:      3    27.3     1.0    32.0    81.0

Triples Correction (T)                     ...     -0.002006352
    alpha-alpha-alpha ... -0.000047445 (  2.4%)
    alpha-alpha-beta  ... -0.001958907 ( 97.6%)
    alpha-beta -beta  ...  0.000000000 ( -0.0%)
    beta -beta -beta  ...  0.000000000 ( -0.0%)
Final correlation energy                   ...     -0.093771220
E(CCSD)                                    ...    -37.778376408
E(CCSD(T))                                 ...    -37.780382761

----------------------------
STATISTICS FOR PAIR-ENERGIES
----------------------------
Minimum, maximum and average ratios of UMP and CCSD pair-energies ... 0.97, 1.47, 1.17


------------------------------------------------------------------------------- 
                                     TIMINGS                                   
------------------------------------------------------------------------------- 


Total execution time                   ...        2.608 sec

Localization of occupied MO's          ...        0.704 sec ( 27.0%)
Fock Matrix Formation                  ...        0.276 sec ( 10.6%)
Differential overlap integrals         ...        0.019 sec (  0.7%)
Organizing maps                        ...        0.001 sec (  0.0%)
RI 3-index integral generations        ...        0.083 sec (  3.2%)
RI-PNO integral transformation         ...        0.076 sec (  2.9%)
Initial Guess                          ...        0.102 sec (  3.9%)
DIIS Solver                            ...        0.004 sec (  0.1%)
State Vector Update                    ...        0.000 sec (  0.0%)
Sigma-vector construction              ...        0.287 sec ( 11.0%)
  <D|H|D>(0-ext)                       ...        0.002 sec (  0.8% of sigma)
  <D|H|D>(2-ext)                       ...        0.017 sec (  5.8% of sigma)
  <D|H|D>(4-ext)                       ...        0.063 sec ( 22.0% of sigma)
  <D|H|D>(4-ext-corr)                  ...        0.129 sec ( 45.0% of sigma)
  CCSD doubles correction              ...        0.003 sec (  1.0% of sigma)
  <S|H|S>                              ...        0.005 sec (  1.9% of sigma)
  <S|H|D>(1-ext)                       ...        0.003 sec (  0.9% of sigma)
  <S|H|D>(3-ext)                       ...        0.005 sec (  1.9% of sigma)
  Fock-dressing                        ...        0.025 sec (  8.9% of sigma)
  Singles amplitudes                   ...        0.001 sec (  0.4% of sigma)
  (ik|jl)-dressing                     ...        0.003 sec (  1.0% of sigma)
  (ij|ab),(ia|jb)-dressing             ...        0.024 sec (  8.3% of sigma)
Total Time for computing (T)           ...        0.012 sec (  0.4% of ALL)


-------------------------   --------------------
FINAL SINGLE POINT ENERGY       -37.780382760664
-------------------------   --------------------


                            ***************************************
                            *     ORCA property calculations      *
                            ***************************************

                                    ---------------------
                                    Active property flags
                                    ---------------------
   (+) Dipole Moment


------------------------------------------------------------------------------
                       ORCA ELECTRIC PROPERTIES CALCULATION
------------------------------------------------------------------------------

Dipole Moment Calculation                       ... on
Quadrupole Moment Calculation                   ... off
Polarizability Calculation                      ... off
GBWName                                         ... C.gbw
Electron density file                           ... C.scfp.tmp

-------------
DIPOLE MOMENT
-------------
                                X             Y             Z
Electronic contribution:      0.00000      -0.00000      -0.00000
Nuclear contribution   :      0.00000       0.00000       0.00000
                        -----------------------------------------
Total Dipole Moment    :      0.00000      -0.00000      -0.00000
                        -----------------------------------------
Magnitude (a.u.)       :      0.00000
Magnitude (Debye)      :      0.00000


Timings for individual modules:

Sum of individual times         ...        8.697 sec (=   0.145 min)
GTO integral calculation        ...        0.139 sec (=   0.002 min)   1.6 %
SCF iterations                  ...        5.931 sec (=   0.099 min)  68.2 %
MDCI module                     ...        2.627 sec (=   0.044 min)  30.2 %
                             ****ORCA TERMINATED NORMALLY****
TOTAL RUN TIME: 0 days 0 hours 0 minutes 8 seconds 799 msec
