
                                 *****************
                                 * O   R   C   A *
                                 *****************

           --- An Ab Initio, DFT and Semiempirical electronic structure package ---

                  #######################################################
                  #                        -***-                        #
                  #  Department of molecular theory and spectroscopy    #
                  #              Directorship: Frank Neese              #
                  # Max Planck Institute for Chemical Energy Conversion #
                  #                  D-45470 Muelheim/Ruhr              #
                  #                       Germany                       #
                  #                                                     #
                  #                  All rights reserved                #
                  #                        -***-                        #
                  #######################################################


                         Program Version 4.0.0.2 - RELEASE -


 With contributions from (in alphabetic order):
   Daniel Aravena         : Magnetic Properties
   Michael Atanasov       : Ab Initio Ligand Field Theory
   Ute Becker             : Parallelization
   Martin Brehm           : Molecular dynamics
   Dmytro Bykov           : SCF Hessian
   Vijay G. Chilkuri      : MRCI spin determinant printing
   Dipayan Datta          : RHF DLPNO-CCSD density
   Achintya Kumar Dutta   : EOM-CC, STEOM-CC
   Dmitry Ganyushin       : Spin-Orbit,Spin-Spin,Magnetic field MRCI
   Yang Guo               : DLPNO-NEVPT2, CIM, IAO-localization
   Andreas Hansen         : Spin unrestricted coupled pair/coupled cluster methods
   Lee Huntington         : MR-EOM, pCC
   Robert Izsak           : Overlap fitted RIJCOSX, COSX-SCS-MP3, EOM
   Christian Kollmar      : KDIIS, OOCD, Brueckner-CCSD(T), CCSD density
   Simone Kossmann        : Meta GGA functionals, TD-DFT gradient, OOMP2, MP2 Hessian
   Martin Krupicka        : AUTO-CI
   Dagmar Lenk            : GEPOL surface
   Dimitrios Liakos       : Extrapolation schemes; parallel MDCI
   Dimitrios Manganas     : ROCIS; embedding schemes
   Dimitrios Pantazis     : SARC Basis sets
   Taras Petrenko         : DFT Hessian,TD-DFT gradient, ASA, ECA, R-Raman, ABS, FL, XAS/XES, NRVS
   Peter Pinski           : DLPNO-MP2
   Christoph Reimann      : Effective Core Potentials
   Marius Retegan         : Local ZFS, SOC
   Christoph Riplinger    : Optimizer, TS searches, QM/MM, DLPNO-CCSD(T), (RO)-DLPNO pert. Triples
   Tobias Risthaus        : Range-separated hybrids, TD-DFT gradient, RPA, STAB
   Michael Roemelt        : Restricted open shell CIS
   Masaaki Saitow         : Open-shell DLPNO
   Barbara Sandhoefer     : DKH picture change effects
   Kantharuban Sivalingam : CASSCF convergence, NEVPT2, FIC-MRCI
   Georgi Stoychev        : AutoAux
   Boris Wezisla          : Elementary symmetry handling
   Frank Wennmohs         : Technical directorship


 We gratefully acknowledge several colleagues who have allowed us to
 interface, adapt or use parts of their codes:
   Stefan Grimme, W. Hujo, H. Kruse,             : VdW corrections, initial TS optimization,
                  C. Bannwarth                     DFT functionals, gCP, sTDA/sTD-DF
   Ed Valeev                                     : LibInt (2-el integral package), F12 methods
   Garnet Chan, S. Sharma, J. Yang, R. Olivares  : DMRG
   Ulf Ekstrom                                   : XCFun DFT Library
   Mihaly Kallay                                 : mrcc  (arbitrary order and MRCC methods)
   Jiri Pittner, Ondrej Demel                    : Mk-CCSD
   Frank Weinhold                                : gennbo (NPA and NBO analysis)
   Christopher J. Cramer and Donald G. Truhlar   : smd solvation model


 Your calculation uses the libint2 library for the computation of 2-el integrals
 For citations please refer to: http://libint.valeyev.net

 This ORCA versions uses:
   CBLAS   interface :  Fast vector & matrix operations
   LAPACKE interface :  Fast linear algebra routines
   SCALAPACK package :  Parallel linear algebra routines


Your calculation utilizes the basis: cc-pVTZ 
       H, B-Ne : Obtained from the ccRepo (grant-hill.group.shef.ac.uk/ccrepo) Feb. 2017
                 T. H. Dunning, Jr., J. Chem. Phys. 90, 1007 (1989)
            He : Obtained from the ccRepo (grant-hill.group.shef.ac.uk/ccrepo) Feb. 2017
                 D. E. Woon, T. H. Dunning, Jr., J. Chem. Phys. 100, 2975 (1994)
  Li-Be, Na-Mg : Obtained from the ccRepo (grant-hill.group.shef.ac.uk/ccrepo) Feb. 2017
                 B. P. Prascher, D. E. Woon, K. A. Peterson, T. H. Dunning, Jr., A. K. Wilson, Theor. Chem. Acc. 128, 69 (2011)
         Al-Ar : Obtained from the ccRepo (grant-hill.group.shef.ac.uk/ccrepo) Feb. 2017
                 D. E. Woon, T. H. Dunning, Jr., J. Chem. Phys. 98, 1358 (1993)
            Ca : Obtained from the Peterson Research Group Website (tyr0.chem.wsu.edu/~kipeters) Feb. 2017
                 J. Koput, K. A. Peterson, J. Phys. Chem. 106, 9595 (2002)
         Sc-Zn : Obtained from the ccRepo (grant-hill.group.shef.ac.uk/ccrepo) Feb. 2017
                 N. B. Balabanov, K. A. Peterson, J. Chem. Phys. 123, 064107 (2005)
                 N. B. Balabanov, K. A. Peterson, J. Chem. Phys. 125, 074110 (2006)
         Ga-Kr : Obtained from the ccRepo (grant-hill.group.shef.ac.uk/ccrepo) Feb. 2017
                 A. K. Wilson, D. E. Woon, K. A. Peterson, T. H. Dunning, Jr., J. Chem. Phys. 110, 7667 (1999)
             Y : Obtained from the ccRepo (grant-hill.group.shef.ac.uk/ccrepo) Feb. 2017
                 K. A. Peterson, D. Figgen, M. Dolg, H. Stoll, J. Chem. Phys. 126, 124101 (2007)
        Ag, Au : Obtained from the Peterson Research Group Website (tyr0.chem.wsu.edu/~kipeters) Feb. 2017
                 K. A. Peterson, C. Puzzarini, Theor. Chem. Acc. 114, 283 (2005)

Your calculation utilizes the auxiliary basis: cc-pVTZ/C 
  Obtained from the EMSL Basis Set Exchange (bse.pnl.gov) Feb. 2017
  H-He, B-F, Al-Ar, Ga-Kr : F. Weigend, A. Kohn, C. Hattig, J. Chem. Phys. 116, 3175 (2002)
             Li-Be, Na-Mg : C. Haettig, Phys. Chem. Chem. Phys. 7, 59 (2005)
                       Ne : C. Haettig, Phys. Chem. Chem. Phys. 7, 59 (2005)
                            F. Weigend, A. Kohn, C. Hattig, J. Chem. Phys. 116, 3175 (2002)
                    Sc-Zn : J. G. Hill, J. A. Platts, J. Chem. Phys. 128, 044104 (2008)

Your calculation utilizes the auxiliary basis: cc-pVTZ/JK 
  H, B-F, Al-Cl, Ga-Br : Obtained from the TURBOMOLE 7.0 basis set library

WARNING: Overwriting auxiliary coulomb basis with /JK basis!
================================================================================
                                        WARNINGS
                       Please study these warnings very carefully!
================================================================================

Warning: TCutStore was < 0. Adjusted to Thresh (uncritical)

WARNING: your system is open-shell and RHF/RKS was chosen
  ===> : WILL SWITCH to UHF/UKS


WARNING: PNO calculations with unrestricted orbitals require UNOs
  ===> : Switching on UNOs

WARNING: MDCI localization requested with randomization but with NAttempts smaller than number of processes
  ===> : Setting NAttempts = Number of parallel processes!

WARNING: Post HF methods need fully converged wavefunctions
  ===> : Setting SCFConvForced true
         You can overwrite this default with %scf ConvForced false 


INFO   : the flag for use of LIBINT has been found!

================================================================================
                                       INPUT FILE
================================================================================
NAME = F.inp
|  1> ! DLPNO-CCSD(T) cc-pVTZ cc-pVTZ/C cc-pVTZ/JK RIJCOSX TightSCF
|  2> * xyz 0 2 
|  3> F  0.0  0.0  0.0
|  4> *
|  5> 
|  6>                          ****END OF INPUT****
================================================================================

                       ****************************
                       * Single Point Calculation *
                       ****************************

---------------------------------
CARTESIAN COORDINATES (ANGSTROEM)
---------------------------------
  F      0.000000    0.000000    0.000000

----------------------------
CARTESIAN COORDINATES (A.U.)
----------------------------
  NO LB      ZA    FRAG     MASS         X           Y           Z
   0 F     9.0000    0    18.998    0.000000    0.000000    0.000000

--------------------------------
INTERNAL COORDINATES (ANGSTROEM)
--------------------------------
 F      0   0   0     0.000000000000     0.00000000     0.00000000

---------------------------
INTERNAL COORDINATES (A.U.)
---------------------------
 F      0   0   0     0.000000000000     0.00000000     0.00000000

---------------------
BASIS SET INFORMATION
---------------------
There are 1 groups of distinct atoms

 Group   1 Type F   : 18s5p2d1f contracted to 4s3p2d1f pattern {8811/311/11/1}

Atom   0F    basis set group =>   1
-------------------------------
AUXILIARY BASIS SET INFORMATION
-------------------------------
There are 1 groups of distinct atoms

 Group   1 Type F   : 10s7p5d2f1g contracted to 10s7p5d2f1g pattern {1111111111/1111111/11111/11/1}

Atom   0F    basis set group =>   1
------------------------------------------------------------------------------
                           ORCA GTO INTEGRAL CALCULATION
                           -- RI-GTO INTEGRALS CHOSEN --
------------------------------------------------------------------------------

                         BASIS SET STATISTICS AND STARTUP INFO

Gaussian basis set:
 # of primitive gaussian shells          ...   26
 # of primitive gaussian functions       ...   50
 # of contracted shells                  ...   10
 # of contracted basis functions         ...   30
 Highest angular momentum                ...    3
 Maximum contraction depth               ...    8
Auxiliary gaussian basis set:
 # of primitive gaussian shells          ...   25
 # of primitive gaussian functions       ...   79
 # of contracted shells                  ...   25
 # of contracted aux-basis functions     ...   79
 Highest angular momentum                ...    4
 Maximum contraction depth               ...    1
Ratio of auxiliary to basis functions    ...  2.63
Integral package used                  ... LIBINT
 One Electron integrals                  ... done
 Ordering auxiliary basis shells         ... done
 Integral threshhold             Thresh  ...  2.500e-11
 Primitive cut-off               TCut    ...  2.500e-12
 Pre-screening matrix                    ... done
 Shell pair data                         ... 
 Ordering of the shell pairs             ... done (   0.000 sec) 55 of 55 pairs
 Determination of significant pairs      ... done (   0.000 sec)
 Creation of shell pair data             ... done (   0.000 sec)
 Storage of shell pair data              ... done (   0.000 sec)
 Shell pair data done in (   0.000 sec)
 Computing two index integrals           ... done
 Cholesky decomposition of the V-matrix  ... done


Timings:
 Total evaluation time                   ...   0.117 sec (  0.002 min)
 One electron matrix time                ...   0.003 sec (  0.000 min) =  2.8%
 Schwartz matrix evaluation time         ...   0.098 sec (  0.002 min) = 83.7%
 Two index repulsion integral time       ...   0.000 sec (  0.000 min) =  0.1%
 Cholesky decomposition of V             ...   0.000 sec (  0.000 min) =  0.1%
 Three index repulsion integral time     ...   0.000 sec (  0.000 min) =  0.0%

-------------------------------------------------------------------------------
                                 ORCA SCF
-------------------------------------------------------------------------------

------------
SCF SETTINGS
------------
Hamiltonian:
 Ab initio Hamiltonian  Method          .... Hartree-Fock(GTOs)
 RI-approximation to the Coulomb term is turned on
   Number of auxiliary basis functions  .... 79
   RIJ-COSX (HFX calculated with COS-X)).... on


General Settings:
 Integral files         IntName         .... F
 Hartree-Fock type      HFTyp           .... UHF
 Total Charge           Charge          ....    0
 Multiplicity           Mult            ....    2
 Number of Electrons    NEL             ....    9
 Basis Dimension        Dim             ....   30
 Nuclear Repulsion      ENuc            ....      0.0000000000 Eh

Convergence Acceleration:
 DIIS                   CNVDIIS         .... on
   Start iteration      DIISMaxIt       ....    12
   Startup error        DIISStart       ....  0.200000
   # of expansion vecs  DIISMaxEq       ....     5
   Bias factor          DIISBfac        ....   1.050
   Max. coefficient     DIISMaxC        ....  10.000
 Newton-Raphson         CNVNR           .... off
 SOSCF                  CNVSOSCF        .... off
 Level Shifting         CNVShift        .... on
   Level shift para.    LevelShift      ....    0.2500
   Turn off err/grad.   ShiftErr        ....    0.0010
 Zerner damping         CNVZerner       .... off
 Static damping         CNVDamp         .... on
   Fraction old density DampFac         ....    0.7000
   Max. Damping (<1)    DampMax         ....    0.9800
   Min. Damping (>=0)   DampMin         ....    0.0000
   Turn off err/grad.   DampErr         ....    0.1000
 Fernandez-Rico         CNVRico         .... off

SCF Procedure:
 Maximum # iterations   MaxIter         ....   125
 SCF integral mode      SCFMode         .... Direct
   Integral package                     .... LIBINT
 Reset frequeny         DirectResetFreq ....    20
 Integral Threshold     Thresh          ....  2.500e-11 Eh
 Primitive CutOff       TCut            ....  2.500e-12 Eh

Convergence Tolerance:
 Convergence Check Mode ConvCheckMode   .... Total+1el-Energy
 Convergence forced     ConvForced      .... 1
 Energy Change          TolE            ....  1.000e-08 Eh
 1-El. energy change                    ....  1.000e-05 Eh
 DIIS Error             TolErr          ....  5.000e-07


Diagonalization of the overlap matrix:
Smallest eigenvalue                        ... 4.249e-02
Time for diagonalization                   ...    0.000 sec
Threshold for overlap eigenvalues          ... 1.000e-08
Number of eigenvalues below threshold      ... 0
Time for construction of square roots      ...    0.000 sec
Total time needed                          ...    0.001 sec

-------------------
DFT GRID GENERATION
-------------------

General Integration Accuracy     IntAcc      ...  4.340
Radial Grid Type                 RadialGrid  ... Gauss-Chebyshev
Angular Grid (max. acc.)         AngularGrid ... Lebedev-110
Angular grid pruning method      GridPruning ... 3 (G Style)
Weight generation scheme         WeightScheme... Becke
Basis function cutoff            BFCut       ...    1.0000e-11
Integration weight cutoff        WCut        ...    1.0000e-14
Grids for H and He will be reduced by one unit

# of grid points (after initial pruning)     ...   1740 (   0.0 sec)
# of grid points (after weights+screening)   ...   1740 (   0.0 sec)
Grid point division into batches done        ...    0.0 sec
Reduced shell lists constructed in    0.0 sec

Total number of grid points                  ...     1740
Total number of batches                      ...       28
Average number of points per batch           ...       62
Average number of grid points per atom       ...     1740
Average number of shells per batch           ...     9.00 (90.00%)
Average number of basis functions per batch  ...    26.66 (88.85%)
Average number of large shells per batch     ...     8.55 (95.02%)
Average number of large basis fcns per batch ...    25.45 (95.47%)
Maximum spatial batch extension              ...  13.89, 25.65, 25.65 au
Average spatial batch extension              ...   6.41,  7.60,  8.62 au

Time for grid setup =    0.009 sec

------------------------------
INITIAL GUESS: MODEL POTENTIAL
------------------------------
Loading Hartree-Fock densities                     ... done
Calculating cut-offs                               ... done
Setting up the integral package                    ... done
Initializing the effective Hamiltonian             ... done
Starting the Coulomb interaction                   ... done (   0.0 sec)
Reading the grid                                   ... done
Mapping shells                                     ... done
Starting the XC term evaluation                    ... done (   0.0 sec)
Transforming the Hamiltonian                       ... done (   0.0 sec)
Diagonalizing the Hamiltonian                      ... done (   0.0 sec)
Back transforming the eigenvectors                 ... done (   0.0 sec)
Now organizing SCF variables                       ... done
                      ------------------
                      INITIAL GUESS DONE (   0.1 sec)
                      ------------------
--------------------
COSX GRID GENERATION
--------------------

General Integration Accuracy     IntAcc      ...  3.340
Radial Grid Type                 RadialGrid  ... Gauss-Chebyshev
Angular Grid (max. acc.)         AngularGrid ... Lebedev-50
Angular grid pruning method      GridPruning ... 3 (G Style)
Weight generation scheme         WeightScheme... Becke
Basis function cutoff            BFCut       ...    1.0000e-11
Integration weight cutoff        WCut        ...    1.0000e-14
Grids for H and He will be reduced by one unit

# of grid points (after initial pruning)     ...    580 (   0.0 sec)
# of grid points (after weights+screening)   ...    580 (   0.0 sec)
Grid point division into batches done        ...    0.0 sec
Reduced shell lists constructed in    0.0 sec

Total number of grid points                  ...      580
Total number of batches                      ...       10
Average number of points per batch           ...       58
Average number of grid points per atom       ...      580
Average number of shells per batch           ...     9.09 (90.91%)
Average number of basis functions per batch  ...    27.27 (90.91%)
Average number of large shells per batch     ...     9.09 (100.00%)
Average number of large basis fcns per batch ...    27.27 (100.00%)
Maximum spatial batch extension              ...  16.92, 20.72, 20.72 au
Average spatial batch extension              ...   7.07,  7.83, 11.47 au

Overlap Fitting                  UseSFitting ... on
Constructing numerical overlap ... done (      0.0 sec)
Inverting numerical overlap    ... done (      0.0 sec)
Obtaining analytic overlap     ... done (      0.0 sec)
Final contraction and storage  ... done (      0.0 sec)


General Integration Accuracy     IntAcc      ...  3.670
Radial Grid Type                 RadialGrid  ... Gauss-Chebyshev
Angular Grid (max. acc.)         AngularGrid ... Lebedev-50
Angular grid pruning method      GridPruning ... 3 (G Style)
Weight generation scheme         WeightScheme... Becke
Basis function cutoff            BFCut       ...    1.0000e-11
Integration weight cutoff        WCut        ...    1.0000e-14
Grids for H and He will be reduced by one unit

# of grid points (after initial pruning)     ...    706 (   0.0 sec)
# of grid points (after weights+screening)   ...    706 (   0.0 sec)
Grid point division into batches done        ...    0.0 sec
Reduced shell lists constructed in    0.0 sec

Total number of grid points                  ...      706
Total number of batches                      ...       12
Average number of points per batch           ...       58
Average number of grid points per atom       ...      706
Average number of shells per batch           ...     9.23 (92.31%)
Average number of basis functions per batch  ...    27.69 (92.31%)
Average number of large shells per batch     ...     9.08 (98.33%)
Average number of large basis fcns per batch ...    27.23 (98.33%)
Maximum spatial batch extension              ...  18.51, 22.67, 22.67 au
Average spatial batch extension              ...   6.78, 10.02, 10.71 au

Overlap Fitting                  UseSFitting ... on
Constructing numerical overlap ... done (      0.0 sec)
Inverting numerical overlap    ... done (      0.0 sec)
Obtaining analytic overlap     ... done (      0.0 sec)
Final contraction and storage  ... done (      0.0 sec)


General Integration Accuracy     IntAcc      ...  4.010
Radial Grid Type                 RadialGrid  ... Gauss-Chebyshev
Angular Grid (max. acc.)         AngularGrid ... Lebedev-110
Angular grid pruning method      GridPruning ... 3 (G Style)
Weight generation scheme         WeightScheme... Becke
Basis function cutoff            BFCut       ...    1.0000e-11
Integration weight cutoff        WCut        ...    1.0000e-14
Grids for H and He will be reduced by one unit

# of grid points (after initial pruning)     ...   1446 (   0.0 sec)
# of grid points (after weights+screening)   ...   1446 (   0.0 sec)
Grid point division into batches done        ...    0.0 sec
Reduced shell lists constructed in    0.0 sec

Total number of grid points                  ...     1446
Total number of batches                      ...       23
Average number of points per batch           ...       62
Average number of grid points per atom       ...     1446
Average number of shells per batch           ...     9.00 (90.00%)
Average number of basis functions per batch  ...    26.67 (88.89%)
Average number of large shells per batch     ...     8.42 (93.52%)
Average number of large basis fcns per batch ...    25.08 (94.06%)
Maximum spatial batch extension              ...  14.65, 24.28, 24.28 au
Average spatial batch extension              ...   7.57,  8.66,  9.52 au

Overlap Fitting                  UseSFitting ... on
Constructing numerical overlap ... done (      0.0 sec)
Inverting numerical overlap    ... done (      0.0 sec)
Obtaining analytic overlap     ... done (      0.0 sec)
Final contraction and storage  ... done (      0.0 sec)

Time for X-Grid setup             =    0.097 sec
--------------
SCF ITERATIONS
--------------
ITER       Energy         Delta-E        Max-DP      RMS-DP      [F,P]     Damp
               ***  Starting incremental Fock matrix formation  ***
  0    -99.3876948610   0.000000000000 0.01006300  0.00071210  0.2255833 0.7000
  1    -99.3917582018  -0.004063340815 0.00852112  0.00056650  0.1611859 0.7000
                               ***Turning on DIIS***
  2    -99.3948086907  -0.003050488957 0.00655405  0.00041829  0.1148838 0.7000
  3    -99.3656997466   0.029108944146 0.01846841  0.00110373  0.0819823 0.0000
  4    -99.4014332734  -0.035733526810 0.00242647  0.00014658  0.0054405 0.0000
  5    -99.4033887261  -0.001955452702 0.00145702  0.00010090  0.0028481 0.0000
  6    -99.4029855298   0.000403196318 0.00064016  0.00004450  0.0007244 0.0000
               *** Restarting incremental Fock matrix formation ***
                                   *** Resetting DIIS ***
  7    -99.4034635042  -0.000477974458 0.00706645  0.00022651  0.0688572 0.0000
  8    -99.4052042389  -0.001740734701 0.00206963  0.00006621  0.0105490 0.0000
  9    -99.4050211657   0.000183073248 0.00034798  0.00001463  0.0012089 0.0000
 10    -99.4050692605  -0.000048094812 0.00006773  0.00000523  0.0001205 0.0000
 11    -99.4050420158   0.000027244651 0.00002808  0.00000187  0.0000311 0.0000
 12    -99.4050486494  -0.000006633564 0.00000762  0.00000058  0.0000093 0.0000
 13    -99.4050597391  -0.000011089695 0.00000313  0.00000023  0.0000019 0.0000
                            ***DIIS convergence achieved***

               *****************************************************
               *                     SUCCESS                       *
               *           SCF CONVERGED AFTER  14 CYCLES          *
               *****************************************************

Old exchange energy                            =    -10.047736364 Eh
New exchange energy                            =    -10.048269225 Eh
Exchange energy change after final integration =     -0.000532861 Eh
Total energy after final integration           =    -99.405589503 Eh
Final COS-X integration done in                =     0.077 sec

----------------
TOTAL SCF ENERGY
----------------

Total Energy       :          -99.40558950 Eh           -2704.96361 eV

Components:
Nuclear Repulsion  :            0.00000000 Eh               0.00000 eV
Electronic Energy  :          -99.40558950 Eh           -2704.96361 eV
One Electron Energy:         -139.26263097 Eh           -3789.52884 eV
Two Electron Energy:           39.85704147 Eh            1084.56524 eV

Virial components:
Potential Energy   :         -198.81450311 Eh           -5410.01767 eV
Kinetic Energy     :           99.40891361 Eh            2705.05406 eV
Virial Ratio       :            1.99996656


---------------
SCF CONVERGENCE
---------------

  Last Energy change         ...    3.0970e-06  Tolerance :   1.0000e-08
  Last MAX-Density change    ...    0.0000e+00  Tolerance :   1.0000e-07
  Last RMS-Density change    ...    0.0000e+00  Tolerance :   5.0000e-09
  Last DIIS Error            ...    6.3737e-07  Tolerance :   5.0000e-07

             **** THE GBW FILE WAS UPDATED (F.gbw) ****
             **** DENSITY FILE WAS UPDATED (F.scfp.tmp) ****
             **** ENERGY FILE WAS UPDATED (F.en.tmp) ****
----------------------
UHF SPIN CONTAMINATION
----------------------

Expectation value of <S**2>     :     0.753416
Ideal value S*(S+1) for S=0.5   :     0.750000
Deviation                       :     0.003416

----------------
ORBITAL ENERGIES
----------------
                 SPIN UP ORBITALS
  NO   OCC          E(Eh)            E(eV) 
   0   1.0000     -26.402655      -718.4528 
   1   1.0000      -1.668761       -45.4093 
   2   1.0000      -0.839768       -22.8512 
   3   1.0000      -0.726947       -19.7812 
   4   1.0000      -0.726947       -19.7812 
   5   0.0000       0.854139        23.2423 
   6   0.0000       0.903525        24.5862 
   7   0.0000       0.903525        24.5862 
   8   0.0000       1.132658        30.8212 
   9   0.0000       2.151098        58.5343 
  10   0.0000       2.168607        59.0108 
  11   0.0000       2.168607        59.0108 
  12   0.0000       2.224620        60.5350 
  13   0.0000       2.224621        60.5350 
  14   0.0000       4.911093       133.6376 
  15   0.0000       4.998366       136.0124 
  16   0.0000       4.998366       136.0124 
  17   0.0000       7.254936       197.4168 
  18   0.0000       7.265835       197.7134 
  19   0.0000       7.265835       197.7134 
  20   0.0000       7.298763       198.6094 
  21   0.0000       7.298765       198.6095 
  22   0.0000       7.354598       200.1288 
  23   0.0000       7.354598       200.1288 
  24   0.0000       8.679851       236.1907 
  25   0.0000       8.706746       236.9226 
  26   0.0000       8.706746       236.9226 
  27   0.0000       8.786971       239.1056 
  28   0.0000       8.787074       239.1084 
  29   0.0000       9.475864       257.8514 

                 SPIN DOWN ORBITALS
  NO   OCC          E(Eh)            E(eV) 
   0   1.0000     -26.355069      -717.1579 
   1   1.0000      -1.474633       -40.1268 
   2   1.0000      -0.676351       -18.4045 
   3   1.0000      -0.676351       -18.4045 
   4   0.0000       0.068978         1.8770 
   5   0.0000       0.919539        25.0219 
   6   0.0000       0.919539        25.0219 
   7   0.0000       1.024621        27.8814 
   8   0.0000       1.178373        32.0652 
   9   0.0000       2.231291        60.7165 
  10   0.0000       2.231292        60.7165 
  11   0.0000       2.262680        61.5707 
  12   0.0000       2.262680        61.5707 
  13   0.0000       2.274740        61.8988 
  14   0.0000       5.025409       136.7483 
  15   0.0000       5.025409       136.7483 
  16   0.0000       5.093722       138.6072 
  17   0.0000       7.337576       199.6656 
  18   0.0000       7.340172       199.7362 
  19   0.0000       7.340172       199.7362 
  20   0.0000       7.348075       199.9513 
  21   0.0000       7.348090       199.9517 
  22   0.0000       7.361035       200.3040 
  23   0.0000       7.361035       200.3040 
  24   0.0000       8.808716       239.6974 
  25   0.0000       8.808821       239.7002 
  26   0.0000       8.824440       240.1252 
  27   0.0000       8.824440       240.1252 
  28   0.0000       8.829940       240.2749 
  29   0.0000       9.528537       259.2847 

                    ********************************
                    * MULLIKEN POPULATION ANALYSIS *
                    ********************************

--------------------------------------------
MULLIKEN ATOMIC CHARGES AND SPIN POPULATIONS
--------------------------------------------
   0 F :   -0.000000    1.000000
Sum of atomic charges         :   -0.0000000
Sum of atomic spin populations:    1.0000000

-----------------------------------------------------
MULLIKEN REDUCED ORBITAL CHARGES AND SPIN POPULATIONS
-----------------------------------------------------
CHARGE
  0 F s       :     3.998979  s :     3.998979
      pz      :     0.999933  p :     4.999842
      px      :     1.999954
      py      :     1.999954
      dz2     :     0.001021  d :     0.001021
      dxz     :     0.000000
      dyz     :     0.000000
      dx2y2   :     0.000000
      dxy     :     0.000000
      f0      :     0.000067  f :     0.000158
      f+1     :     0.000046
      f-1     :     0.000046
      f+2     :     0.000000
      f-2     :     0.000000
      f+3     :     0.000000
      f-3     :     0.000000

SPIN
  0 F s       :     0.000230  s :     0.000230
      pz      :     0.999933  p :     0.999845
      px      :    -0.000044
      py      :    -0.000044
      dz2     :    -0.000230  d :    -0.000230
      dxz     :    -0.000000
      dyz     :    -0.000000
      dx2y2   :    -0.000000
      dxy     :    -0.000000
      f0      :     0.000067  f :     0.000155
      f+1     :     0.000044
      f-1     :     0.000044
      f+2     :     0.000000
      f-2     :     0.000000
      f+3     :    -0.000000
      f-3     :    -0.000000


                     *******************************
                     * LOEWDIN POPULATION ANALYSIS *
                     *******************************

-------------------------------------------
LOEWDIN ATOMIC CHARGES AND SPIN POPULATIONS
-------------------------------------------
   0 F :   -0.000000    1.000000

----------------------------------------------------
LOEWDIN REDUCED ORBITAL CHARGES AND SPIN POPULATIONS
----------------------------------------------------
CHARGE
  0 F s       :     3.998979  s :     3.998979
      pz      :     0.999933  p :     4.999842
      px      :     1.999954
      py      :     1.999954
      dz2     :     0.001021  d :     0.001021
      dxz     :     0.000000
      dyz     :     0.000000
      dx2y2   :     0.000000
      dxy     :     0.000000
      f0      :     0.000067  f :     0.000158
      f+1     :     0.000046
      f-1     :     0.000046
      f+2     :     0.000000
      f-2     :     0.000000
      f+3     :     0.000000
      f-3     :     0.000000

SPIN
  0 F s       :     0.000230  s :     0.000230
      pz      :     0.999933  p :     0.999845
      px      :    -0.000044
      py      :    -0.000044
      dz2     :    -0.000230  d :    -0.000230
      dxz     :    -0.000000
      dyz     :    -0.000000
      dx2y2   :    -0.000000
      dxy     :    -0.000000
      f0      :     0.000067  f :     0.000155
      f+1     :     0.000044
      f-1     :     0.000044
      f+2     :     0.000000
      f-2     :     0.000000
      f+3     :    -0.000000
      f-3     :    -0.000000


                      *****************************
                      * MAYER POPULATION ANALYSIS *
                      *****************************

  NA   - Mulliken gross atomic population
  ZA   - Total nuclear charge
  QA   - Mulliken gross atomic charge
  VA   - Mayer's total valence
  BVA  - Mayer's bonded valence
  FA   - Mayer's free valence

  ATOM       NA         ZA         QA         VA         BVA        FA
  0 F      9.0000     9.0000    -0.0000     1.0068     0.0000     1.0068

  Mayer bond orders larger than 0.1



                ***UHF Natural Orbitals were saved in F.unso***


                ***UHF Natural Orbitals were saved in F.uno***

QR-MO GENERATION
 Dim     =   30
 Mult    =    2
 NEl     =    9
 N(DOMO) =    4
 N(SOMO) =    1
 N(VMO)  =   25


                ***Quasi-Restricted Orbitals were saved in F.qro***

Orbital Energies of Quasi-Restricted MO's
   0( 2) :   -26.355038 a.u.  -717.157 eV
   1( 2) :    -1.472114 a.u.   -40.058 eV
   2( 2) :    -0.676071 a.u.   -18.397 eV
   3( 2) :    -0.676071 a.u.   -18.397 eV
   4( 1) :    -0.353912 a.u.    -9.630 eV alpha=  -22.851 beta=    3.590
   5( 0) :     0.854139 a.u.    23.242 eV
   6( 0) :     0.903362 a.u.    24.582 eV
   7( 0) :     0.903362 a.u.    24.582 eV
   8( 0) :     1.132318 a.u.    30.812 eV
   9( 0) :     2.149329 a.u.    58.486 eV
  10( 0) :     2.168607 a.u.    59.011 eV
  11( 0) :     2.168607 a.u.    59.011 eV
  12( 0) :     2.224620 a.u.    60.535 eV
  13( 0) :     2.224621 a.u.    60.535 eV
  14( 0) :     4.911093 a.u.   133.638 eV
  15( 0) :     4.998358 a.u.   136.012 eV
  16( 0) :     4.998358 a.u.   136.012 eV
  17( 0) :     7.254936 a.u.   197.417 eV
  18( 0) :     7.265723 a.u.   197.710 eV
  19( 0) :     7.265723 a.u.   197.710 eV
  20( 0) :     7.298763 a.u.   198.609 eV
  21( 0) :     7.298765 a.u.   198.609 eV
  22( 0) :     7.354598 a.u.   200.129 eV
  23( 0) :     7.354598 a.u.   200.129 eV
  24( 0) :     8.679402 a.u.   236.179 eV
  25( 0) :     8.706747 a.u.   236.923 eV
  26( 0) :     8.706747 a.u.   236.923 eV
  27( 0) :     8.786971 a.u.   239.106 eV
  28( 0) :     8.787074 a.u.   239.108 eV
  29( 0) :     9.475855 a.u.   257.851 eV
-------
TIMINGS
-------

Total SCF time: 0 days 0 hours 0 min 2 sec 

Total time                  ....       2.235 sec
Sum of individual times     ....       2.230 sec  ( 99.8%)

Fock matrix formation       ....       2.021 sec  ( 90.4%)
  Split-RI-J                ....       1.196 sec  ( 59.2% of F)
  Chain of spheres X        ....       0.816 sec  ( 40.4% of F)
  COS-X 1 center corr.      ....       0.000 sec  (  0.0% of F)
Diagonalization             ....       0.009 sec  (  0.4%)
Density matrix formation    ....       0.000 sec  (  0.0%)
Population analysis         ....       0.002 sec  (  0.1%)
Initial guess               ....       0.091 sec  (  4.1%)
Orbital Transformation      ....       0.000 sec  (  0.0%)
Orbital Orthonormalization  ....       0.000 sec  (  0.0%)
DIIS solution               ....       0.001 sec  (  0.1%)

   <<< Auxbasis replaced with F.AUXC.tmp (Dim=81) >>> 



------------------------------------------------------------------------------- 
                              ORCA-MATRIX DRIVEN CI                            
------------------------------------------------------------------------------- 


Wavefunction type
-----------------
Correlation treatment                      ...      CCSD     
Single excitations                         ... ON
Orbital optimization                       ... OFF
Calculation of Z vector                    ... OFF
Calculation of Brueckner orbitals          ... OFF
Perturbative triple excitations            ... ON
Calculation of F12 correction              ... OFF
Frozen core treatment                      ... chemical core (2 el)
Reference Wavefunction                     ... UHF
  Alpha-MOs occ    :     1 ...    4 (  4 MO's/  4 electrons)
  Beta-MOs occ     :     1 ...    3 (  3 MO's/  3 electrons)
  Alpha-MOs virt   :     5 ...   29 ( 25 MO's              )
  Beta-MOs virt    :     4 ...   29 ( 26 MO's              )
  Quasi restricted orbitals will be used (this is similar to a ROHF determinant)
Number of AO's                             ...     30
Number of electrons                        ...      9
Number of correlated electrons             ...      7

Algorithmic settings
--------------------
Integral transformation                    ... All integrals via the RI transformation
RHF integral transformation will be used
K(C) Formation                             ... RI-DLPNO
   PNO-Integral Storage                    ... ON DISK
   PNO occupation number cut-off           ... 3.330e-07
   Singles PNO occupation number cut-off   ... 9.990e-09
   PNO Mulliken prescreening cut-off       ... 1.000e-03
   Domain cut-off (Mulliken population)    ... 1.000e-03
   PNO Normalization                       ...    1
Maximum number of iterations               ...        50
Convergence tolerance (max. residuum)      ... 1.000e-05
Level shift for amplitude update           ... 2.000e-01
Maximum number of DIIS vectors             ...         7
DIIS turned on at iteration                ...         0
Damping before turning on DIIS             ...     0.500
Damping after turning on DIIS              ...     0.000
Pair specific amplitude update             ... OFF
Natural orbital iterations                 ... OFF
Perturbative natural orbital generation    ... OFF
Printlevel                                 ... 2

Singles Fock matrix elements calculated using PNOs.

Memory handling:
----------------
Maximum memory for working arrays          ...    512 MB
Data storage in matrix containers          ... UNCOMPRESSED
Data type for integral storage             ... DOUBLE
In-Core Storage of quantities:
   Amplitudes+Sigma Vector      ... NO
   J+K operators                ... NO
   DIIS vectors                 ... NO
   3-external integrals         ... NO
   4-external integrals         ... NO

Localization treatment:
-----------------------
Localization option                        ...    2
Using relative localization threshhold     ... 1.0e-08
Neglect threshold for strong pairs         ... 1.000e-04 Eh
Prescreening threshold for very weak pairs ... 1.000e-06 Eh
Using randomized seed for localization     ... on

Initializing the integral package          ... done
Localizing the QROs
Localization sum:     0.921456375 
------------------------------------------------------------------------------
                           ORCA ORBITAL LOCALIZATION
------------------------------------------------------------------------------

Input orbitals are from                  ... F.proc0.qro
Output orbitals are to                   ... F.proc0.loc
Max. number of iterations                ... 128
Localizations seeded randomly            ... on
Convergence tolerance                    ... 1.000e-06
Using relative localization threshhold   ... 1.000e-08
Treshold for strong local MOs            ... 9.500e-01
Treshold for bond MOs                    ... 8.500e-01
Operator                                 ... 0
Orbital range for localization           ... 1 to 3
Localization criterion                   ... FOSTER-BOYS
Doing the dipole integrals     ... o.k.
Entering Jacobi type localization:
Using Cholesky decomposition as initial guess.
Initial value of the localization sum :     0.000000
ITERATION   0 : L=    0.9212314097 DL=  9.21e-01 (MAX-T)=  45.000 
ITERATION   1 : L=    0.9214561550 DL=  2.25e-04 (MAX-T)=   0.666 
ITERATION   2 : L=    0.9214563746 DL=  2.20e-07 (MAX-T)=   0.021 
LOCALIZATION SUM CONVERGED


------------------------------------------------------------------------------- 
                    LOCALIZED MOLECULAR ORBITAL COMPOSITIONS                   
------------------------------------------------------------------------------- 

The Mulliken populations for each LMO on each atom are computed
The LMO`s will be ordered according to atom index and type
  (A) Strongly localized MO`s have populations of >=0.950 on one atom
  (B) Two center bond orbitals have populations of >=0.850 on two atoms
  (C) Other MO`s are considered to be `delocalized`

FOUND  -   3 strongly local MO`s
       -   0 two center bond MO`s
       -   0 significantly delocalized MO`s

Rather strongly localized orbitals:
MO   3:   0F  -   1.000000
MO   2:   0F  -   1.000000
MO   1:   0F  -   1.000000
Localized MO's were stored in: F.proc0.loc

------------------------------------------------------------------------------
                           ORCA ORBITAL LOCALIZATION
------------------------------------------------------------------------------

Input orbitals are from                  ... F.proc0.loc
Output orbitals are to                   ... F.proc0.loc
Max. number of iterations                ... 128
Localizations seeded randomly            ... on
Convergence tolerance                    ... 1.000e-06
Using relative localization threshhold   ... 1.000e-08
Treshold for strong local MOs            ... 9.500e-01
Treshold for bond MOs                    ... 8.500e-01
Operator                                 ... 0
Orbital range for localization           ... 4 to 4
Localization criterion                   ... FOSTER-BOYS
Doing the dipole integrals     ... o.k.
Entering Jacobi type localization:
Using Cholesky decomposition as initial guess.
Initial value of the localization sum :     0.000000
ITERATION   0 : L=    0.0000000000 DL=  0.00e+00 (MAX-T)=   0.000 
ITERATION   1 : L=    0.0000000000 DL=  0.00e+00 (MAX-T)=   0.000 
ITERATION   2 : L=    0.0000000000 DL=  0.00e+00 (MAX-T)=   0.000 
LOCALIZATION SUM CONVERGED


------------------------------------------------------------------------------- 
                    LOCALIZED MOLECULAR ORBITAL COMPOSITIONS                   
------------------------------------------------------------------------------- 

The Mulliken populations for each LMO on each atom are computed
The LMO`s will be ordered according to atom index and type
  (A) Strongly localized MO`s have populations of >=0.950 on one atom
  (B) Two center bond orbitals have populations of >=0.850 on two atoms
  (C) Other MO`s are considered to be `delocalized`

FOUND  -   1 strongly local MO`s
       -   0 two center bond MO`s
       -   0 significantly delocalized MO`s

Rather strongly localized orbitals:
MO   4:   0F  -   1.000000
Localized MO's were stored in: F.proc0.loc

Localizing the core orbitals
------------------------------------------------------------------------------
                           ORCA ORBITAL LOCALIZATION
------------------------------------------------------------------------------

Input orbitals are from                  ... F.proc0.loc
Output orbitals are to                   ... F.proc0.loc
Max. number of iterations                ... 128
Localizations seeded randomly            ... on
Convergence tolerance                    ... 1.000e-06
Using relative localization threshhold   ... 1.000e-08
Treshold for strong local MOs            ... 9.500e-01
Treshold for bond MOs                    ... 8.500e-01
Operator                                 ... 0
Orbital range for localization           ... 0 to 0
Localization criterion                   ... FOSTER-BOYS
Doing the dipole integrals     ... o.k.
Entering Jacobi type localization:
Using Cholesky decomposition as initial guess.
Initial value of the localization sum :     0.000000
ITERATION   0 : L=    0.0000000000 DL=  0.00e+00 (MAX-T)=   0.000 
ITERATION   1 : L=    0.0000000000 DL=  0.00e+00 (MAX-T)=   0.000 
ITERATION   2 : L=    0.0000000000 DL=  0.00e+00 (MAX-T)=   0.000 
LOCALIZATION SUM CONVERGED


------------------------------------------------------------------------------- 
                    LOCALIZED MOLECULAR ORBITAL COMPOSITIONS                   
------------------------------------------------------------------------------- 

The Mulliken populations for each LMO on each atom are computed
The LMO`s will be ordered according to atom index and type
  (A) Strongly localized MO`s have populations of >=0.950 on one atom
  (B) Two center bond orbitals have populations of >=0.850 on two atoms
  (C) Other MO`s are considered to be `delocalized`

FOUND  -   1 strongly local MO`s
       -   0 two center bond MO`s
       -   0 significantly delocalized MO`s

Rather strongly localized orbitals:
MO   0:   0F  -   1.000000
Localized MO's were stored in: F.proc0.loc

Re-Reading QRO orbitals for the actual calculation
  ... duplicating orbitals and energies 
  ... adjusting occupation numbers
Warning: internal orbitals are localized - no re-canonicalization of internal orbitals

--------------
DLPNO SETTINGS
--------------

TCutMKN:           1.000e-03
TCutPAO:           1.000e-03
TCutPNO:           3.330e-07
TCutPNOSingles:    9.990e-09
TCutPAOExt:        1.000e-01
TCutPairs:         1.000e-04
TCutPre:           1.000e-06
TCutDOij:          1.000e-05
PAO overlap thresh 1.000e-08
Number of singly-occupied orbitals: 1
TCutTNO:           1.000e-09
TCutMP2Pairs:      1.000e-05
TCutDOStrong:      2.000e-03
TCutMKNStrong:     1.000e-02
TCutMKNWeak:       1.000e-01
TCutDOWeak:        4.000e-03
NTCutTNO:          1
Using PNOs for Singles Fock computation
--------------------------
Reading one-electron matrix from F.H.tmp ...done
Entering RIJCOSX section for the open-shell Fock matrices
Retrieving the Coulomb fitting basis              ... done
Calculating the full J-matrix                     ... done
Calculating all K-matrices                        ... done
RIJCOSX finished
Reference energy                           ...    -99.400981431
Calculating differential overlap integrals (occ,PAO) ... ok
 >> Construction of the PNO with the Koopmans (K)-matrix << 
Entering the RI transformation section

-----------------
RI-TRANSFORMATION (AUX index driven)
-----------------

Dimension of the orbital-basis         ... 30
Dimension of the aux-basis             ... 81
Transformation of internal MOs         ...    4-   4
Number Format for Storage              ... Double (8 Byte)
Integral mode                          ... Direct

First Phase: integral generation and transformation of MO indices
  Aux angular momentum 0               ... done (    0.001 sec)
  Aux angular momentum 1               ... done (    0.001 sec)
  Aux angular momentum 2               ... done (    0.001 sec)
  Aux angular momentum 3               ... done (    0.001 sec)
  Aux angular momentum 4               ... done (    0.000 sec)
Closing buffer VIJ ( 0.00 GB; CompressionRatio= 0.40)
  Phase 1 completed in     0.069 sec
Second Phase: sorting and transformation of aux index

IJ-Transformation
Memory available                       ... 512 MB 
Max. # MO pairs treated in a batch     ... 1    
# of internal orbitals                 ... 1
# batches for internal orbitals        ... 1
Closing buffer IJV ( 0.00 GB; CompressionRatio= 0.98)
(ij|v) transformation done in     0.000 sec

  Phase 2 completed in     0.000 sec
RI-Integral transformation completed in     0.069 sec

-----------------------
RI-FORMATION OF (ij|kl)
-----------------------

Max core memory to be used            ... 512 MB
Memory needed per MO pair             ...   0.0 MB
# of MO pairs included in trafo       ... 1
# of MO pairs treated in a batch      ... 1
# of batches needed                   ... 1
Data format used                      ... DOUBLE
 done (    0.000 sec)
Closing buffer JIJ ( 0.00 GB; CompressionRatio= 0.40)
(ij|kl) transformation completed in     0.000 sec
     ... leaving the RI transformation section
 >> 4-active ERIs are generated & stored in-core fast memory 
 >> End construction..
F12 correction will NOT be calculated
 >>>>>>>>>>>>>>>>>>>>>>>>>>>>>>>>>>>>> 
       Dipole-based Prescreening       
 <<<<<<<<<<<<<<<<<<<<<<<<<<<<<<<<<<<<< 
Threshold for domain construction in prescreening:
   TCutDO    ...     1.0e-02
--------------------------
ELECTRON PAIR PRESCREENING
--------------------------

PAO based multipole pair screening          .... used
   TCutDOij = 1.000000e-05
   TCutPre  = 1.000000e-06
 done

sum of pair energies estimated for screened out pairs ...       0.000000000000 Eh
                                                           
  __   __        __   ___     __        ___  __   __       
 /  ` |__) |  | |  \ |__     / _` |  | |__  /__` /__`     
 \__, |  \ \__/ |__/ |___    \__> \__/ |___ .__/ .__/ 
                                                           

Parameters for the crude guess:
   TScaleDOMP2PreScr   : 2.000e+00
   TScaleMKNMP2PreScr  : 1.000e+01
   TScalePNOMP2PreScr  : 1.000e+00
   TScalePairsMP2PreScr: 1.000e+00
   PAO overlap thresh    1.000e-08
Thresholds for map construction and integral transformation for crude MP2:
   TCutMKN                    ...     1.0e-02
   TCutDO                     ...     2.0e-02
   TCutPairs                  ...     1.0e-04
   TCutPairs_CrudeMP2         ...     1.0e-04
   TCutPNO_CrudeMP2           ...     3.3e-07
   TCutPNOSingles_CrudeMP2    ...     1.0e-08

------------------------------
LOCAL RI (xy|k) TRANSFORMATION
------------------------------

Dimension of OBS basis                 ... 30
Dimension of (OBS)PAOs                 ... 30
Dimension of the aux-basis             ... 81
Integral mode                          ... Direct

First Phase: integral generation and first transformation of MO indices
 number of shell sets computed                       =               1265
 number of shell sets in domains (without screening) =               1265
 number of shell sets without domains or screening   =               1265
Closing buffer F.kxy_op0.tmp.proc0 ( 0.00 GB; CompressionRatio= 0.99)
Local 3-center integral transformation (op=0) completed in     0.020 sec

-----------------------------------------
   _  _______   __    ___  _  ______     
  / |/ / __/ | / /___/ _ \/ |/ / __ \  
 /    / _/ | |/ /___/ ___/    / /_/ /    
/_/|_/___/ |___/   /_/  /_/|_/\____/    
                                         
                for open-shell molecules 
-----------------------------------------


 ==> UMP guess in NEV-PNO space 

Truncation parameters                       .... 
    PAOOverlapThresh     =        1.000e-08
    TCutPairs            =        1.000e-04
    TCutMKN              =        1.000e-02
    TCutDO               =        1.000e-02
    TCutCMO              =        1.000e-03
    TCutCPAO             =        1.000e-03
    TCutPNO              =        3.330e-07
    TScaleTCutPNO_SS     =        1.000e+00
    TScaleTCutPNO_SD     =        1.000e+00
    TCutDO_Crude         =        2.000e-02
    TCutMKN_Crude        =        1.000e-02
    TCutPairs_Crude      =        1.000e-04
    TCutPNO_Crude        =        3.330e-07
Spin component scaling in ijab excitation            .... not used

Formation of guess energy and open-shell PNO.

NEV-PNO operators..
  E(ij->ab)
  E(ip->ab)
  E(pq->ra)
  E(ip->qr)
  E(ip->aq) and E(ip->qa)

 Norm of Semi-Internal Fock Operators ...   0.0000404414
  ==> Semi-internal excitations detected 

   .... Finished loop over pairs

 # of CC pairs      ... [13/13] 
 # of PT pairs      ... [0/13] 
 # of skipped pairs ... [0/13] 

 Initial PAO correlation energy (all pairs)    ...  -0.2027447266 Eh
 Energy constituents in PAO basis (Eh):
  | Vijab(+0) ...  -0.1306277402
  | Viab (-1) ...  -0.0480013163
  | Va   (-1) ...  -0.0000116124
  | Vija (+1) ...  -0.0124359163
  | Via  (+0) ...  -0.0116681414
 Initial PNO correlation energy                ...  -0.2003481836 Eh
 Energy constituents in PNO basis (Eh):
  | Vijab(+0) ...  -0.1306227875 (err=  0.0000049526)
  | Viab (-1) ...  -0.0456117606 (err=  0.0023895557)
  | Va   (-1) ...  -0.0000116124 (err=  0.0000000000)
  | Vija (+1) ...  -0.0124338816 (err=  0.0000020347)
  | Via  (+0) ...  -0.0116681414 (err=  0.0000000000)
 Sum of total truncation errors ...   0.0023965430 Eh
  | Pair screening ...   0.0000000000 Eh
  | PNO truncation ...   0.0023965430 Eh

 UMP2 correlation energy (PAO) ...  -0.1979345812
  | alpha-alpha ...  -0.0318782654 (NP_aa=    6)
  | alpha-beta  ...  -0.1506541684 (NP_ab=   12)
  | beta -beta  ...  -0.0154021474 (NP_bb=    3)
 UMP2 correlation energy (PNO) ...  -0.1954980752
  | alpha-alpha ...  -0.0302820728 (err=  0.0015961925, NP_aa=    6)
  | alpha-beta  ...  -0.1498153986 (err=  0.0008387699, NP_ab=   12)
  | beta -beta  ...  -0.0154006038 (err=  0.0000015436, NP_bb=    3)
 Sum of total UMP2 truncation errors ...   0.0024365060 Eh
  | Pair screening ...   0.0000000000 Eh
  | PNO truncation ...   0.0024365060 Eh
 Timing for NEV-PNO construction (sec.)
  | Intermediate construction  ..            0.000
  | Amplitude construction     ..            0.000
  | Total time                 ..            0.001
 Making pair pair interaction lists ...      ok
                                                 
  ___         ___     __        ___  __   __     
 |__  | |\ | |__     / _` |  | |__  /__` /__`   
 |    | | \| |___    \__> \__/ |___ .__/ .__/ 
                                                 

Thresholds for map construction and integral transformation:
   TCutMKN   ...     1.0e-03
   TCutDO    ...     1.0e-02
   TCutCMO   ...     1.0e-03
   TCutCPAO  ...     1.0e-03

Thresholds for map construction and integral transformation for strong Triples:
   TCutMKN   ...     1.0e-02
   TCutDO    ...     2.0e-02
   TCutCMO   ...     1.0e-03
   TCutCPAO  ...     1.0e-03

Thresholds for map construction and integral transformation for weak Triples:
   TCutMKN   ...     1.0e-01
   TCutDO    ...     4.0e-02
   TCutCMO   ...     1.0e-03
   TCutCPAO  ...     1.0e-03


------------------------------
LOCAL RI (xy|k) TRANSFORMATION
------------------------------

Dimension of OBS basis                 ... 30
Dimension of (OBS)PAOs                 ... 30
Dimension of the aux-basis             ... 81
Integral mode                          ... Direct

First Phase: integral generation and first transformation of MO indices
 number of shell sets computed                       =               1265
 number of shell sets in domains (without screening) =               1265
 number of shell sets without domains or screening   =               1265
Closing buffer F.kxy_op0.tmp.proc0 ( 0.00 GB; CompressionRatio= 0.99)
Local 3-center integral transformation (op=0) completed in     0.020 sec

 ==> UMP guess in NEV-PNO space 

Truncation parameters                       .... 
    PAOOverlapThresh     =        1.000e-08
    TCutPairs            =        1.000e-04
    TCutMKN              =        1.000e-03
    TCutDO               =        1.000e-02
    TCutCMO              =        1.000e-03
    TCutCPAO             =        1.000e-03
    TCutPNO              =        3.330e-07
    TScaleTCutPNO_SS     =        1.000e+00
    TScaleTCutPNO_SD     =        1.000e+00
    TScaleTCutPairs_Somo =        3.300e-01
    TCutPairs_MP2        =        1.000e-05
Spin component scaling in ijab excitation            .... not used

Formation of guess energy and open-shell PNO.

NEV-PNO operators..
  E(ij->ab)
  E(ip->ab)
  E(pq->ra)
  E(ip->qr)
  E(ip->aq) and E(ip->qa)

   .... Finished loop over pairs

 # of surviving pairs is 13 out of 13 pairs 

 Initial PAO correlation energy (all pairs)    ...  -0.2027447266 Eh
 Energy constituents in PAO basis (Eh):
  | Vijab(+0) ...  -0.1306277402
  | Viab (-1) ...  -0.0480013163
  | Va   (-1) ...  -0.0000116124
  | Vija (+1) ...  -0.0124359163
  | Via  (+0) ...  -0.0116681414
 Initial PNO correlation energy                ...  -0.2003481836 Eh
 Energy constituents in PNO basis (Eh):
  | Vijab(+0) ...  -0.1306227875 (err=  0.0000049526)
  | Viab (-1) ...  -0.0456117606 (err=  0.0023895557)
  | Va   (-1) ...  -0.0000116124 (err=  0.0000000000)
  | Vija (+1) ...  -0.0124338816 (err=  0.0000020347)
  | Via  (+0) ...  -0.0116681414 (err=  0.0000000000)
 Sum of total truncation errors ...   0.0023965430 Eh
  | Pair screening ...   0.0000000000 Eh
  | PNO truncation ...   0.0023965430 Eh

 UMP2 correlation energy (PAO) ...  -0.1979345812
  | alpha-alpha ...  -0.0318782654 (NP_aa=    6)
  | alpha-beta  ...  -0.1506541684 (NP_ab=   12)
  | beta -beta  ...  -0.0154021474 (NP_bb=    3)
 UMP2 correlation energy (PNO) ...  -0.1954980752
  | alpha-alpha ...  -0.0302820728 (err=  0.0015961925, NP_aa=    6)
  | alpha-beta  ...  -0.1498153986 (err=  0.0008387699, NP_ab=   12)
  | beta -beta  ...  -0.0154006038 (err=  0.0000015436, NP_bb=    3)
 Sum of total UMP2 truncation errors ...   0.0024365060 Eh
  | Pair screening ...   0.0000000000 Eh
  | PNO truncation ...   0.0024365060 Eh
 Timing for NEV-PNO construction (sec.)
  | Intermediate construction  ..            0.000
  | Amplitude construction     ..            0.000
  | Total time                 ..            0.001
 Making pair pair interaction lists ...      ok
 Total size for 2-ext PNO integrals ...      0.1 MB
Checking the number of SOMO/SOMO doubles PNOs ...  No PNOs should be truncated!


------------------------------
LOCAL RI (xy|k) TRANSFORMATION
------------------------------

Dimension of OBS basis                 ... 30
Dimension of (OBS)PAOs                 ... 30
Dimension of the aux-basis             ... 81
Integral mode                          ... Direct

First Phase: integral generation and first transformation of MO indices
 number of shell sets computed                       =               1265
 number of shell sets in domains (without screening) =               1265
 number of shell sets without domains or screening   =               1265
Closing buffer F.VABPAO.tmp.proc0 ( 0.00 GB; CompressionRatio= 1.00)
Local 3-center integral transformation (op=0) completed in     0.021 sec

------------------------------
LOCAL RI (xy|k) TRANSFORMATION
------------------------------

Dimension of OBS basis                 ... 30
Dimension of (OBS)PAOs                 ... 30
Dimension of the aux-basis             ... 81
Integral mode                          ... Direct

First Phase: integral generation and first transformation of MO indices
 number of shell sets computed                       =               1265
 number of shell sets in domains (without screening) =               1265
 number of shell sets without domains or screening   =               1265
Closing buffer F.kxy_op0.tmp.proc0 ( 0.00 GB; CompressionRatio= 0.91)
Local 3-center integral transformation (op=0) completed in     0.020 sec


-------------------------------------
Pair Pair Term precalculation with     
RI-(ij|mn) and (im|jn) transformation  
ON THE FLY                             
-------------------------------------

   IBatch   1 (of   1)              ... done (    0.120 sec)
Total EXT                           ...           0.120 sec

---------------------
RI-PNO TRANSFORMATION
---------------------

Total Number of PNOs                   ...   314
Total Number of IJ-PNOs                ...   228
Total Number of IP-PNOs                ...    60
Total Number of PQ-PNOs                ...    26
Total Number of IJ-pairs               ...     9
Total Number of PI-pairs               ...     3
Total Number of PQ-pairs               ...     1
Average number of PNOs per pair        ...    24
Maximal number of PNOs per pair        ...    26
>> Statistics for ij-pairs..
   #pairs with  1 -  5 PNOs   :    0
   #pairs with  6 - 10 PNOs   :    0
   #pairs with 11 - 15 PNOs   :    0
   #pairs with 16 - 20 PNOs   :    0
   #pairs with 21 - 25 PNOs   :    6
   #pairs with 26 - 30 PNOs   :    3
   #pairs with 31 - 35 PNOs   :    0
   #pairs with 36 - 40 PNOs   :    0
   #pairs with 41 - 45 PNOs   :    0
   #pairs with 46 - 50 PNOs   :    0
>> Statistics for ip-pairs..
   #pairs with  1 -  5 PNOs   :    0
   #pairs with  6 - 10 PNOs   :    0
   #pairs with 11 - 15 PNOs   :    0
   #pairs with 16 - 20 PNOs   :    3
   #pairs with 21 - 25 PNOs   :    0
   #pairs with 26 - 30 PNOs   :    0
   #pairs with 31 - 35 PNOs   :    0
   #pairs with 36 - 40 PNOs   :    0
   #pairs with 41 - 45 PNOs   :    0
   #pairs with 46 - 50 PNOs   :    0
>> Statistics for pq-pairs..
   #pairs with  1 -  5 PNOs   :    0
   #pairs with  6 - 10 PNOs   :    0
   #pairs with 11 - 15 PNOs   :    0
   #pairs with 16 - 20 PNOs   :    0
   #pairs with 21 - 25 PNOs   :    0
   #pairs with 26 - 30 PNOs   :    1
   #pairs with 31 - 35 PNOs   :    0
   #pairs with 36 - 40 PNOs   :    0
   #pairs with 41 - 45 PNOs   :    0
   #pairs with 46 - 50 PNOs   :    0

Generation of (ij|ab)[P] integrals            ... on
Generation of (ia|bc)[P],(ja|bc)[P] integrals ... on
Storage of 3 and 4 external integrals         ... on
Generation of ALL (ka|bc)[P] integrals        ... on
Keep RI integrals in memory                   ... off

Ibatch:  1 (of  1)
Starting 2-4 index PNO integral generation ... done

Timings:
Total PNO integral transformation time     ...          0.037 sec
Size of the 3-external file                ...         1 MB
Size of the 4-external file                ...         3 MB
Size of the IKJL file                      ...         0 MB
Size of the all 3-external file            ...         2 MB
Size of the 1-external file                ...         0 MB

Size of the PAO/PNO coefficient matrices   ...       0.1 MB

Making pair/pair overlap matrices          ... done (    0.001 sec)
Size of the pair overlap file              ...       0.0 MB
Total # unrestricted pairs ...         21
  # of alpha-alpha pairs   ...          6
  # of alpha-beta pairs    ...         12
  # of beta-beta pairs     ...          3
Constructing the guess amplitudes          ... done (    0.000 sec)

-------------------------
FINAL STARTUP INFORMATION
-------------------------

E(0)                                       ...    -99.400981431
E(SL-UMP2 in NEV-PNO space)                ...     -0.195498075
Initial E(tot)                             ...    -99.596479506
<T|T>                                      ...      0.023649619
Number of unrestricted pairs included      ... 21
Total number of pairs                      ... 21
----------------------------------------------------------
                     OPEN-SHELL COUPLED CLUSTER ITERATIONS
----------------------------------------------------------

Number of PNO amplitudes to be optimized        ...            11506
Number of canonical amplitudes for strong pairs ...            13756
Untruncated number of canonical amplitudes      ...            13756

Iter       E(tot)           E(Corr)          Delta-E          Residual     Time
  0    -99.602669419     -0.199251482     -0.003753407      0.015597364    0.16
                           *** Turning on DIIS ***
  1    -99.612753013     -0.209335075     -0.010083593      0.006227696    0.17
  2    -99.616103541     -0.212685604     -0.003350529      0.002682510    0.17
  3    -99.616579939     -0.213162002     -0.000476397      0.001212505    0.17
  4    -99.616673556     -0.213255619     -0.000093617      0.000433986    0.17
  5    -99.616684099     -0.213266162     -0.000010543      0.000140309    0.17
  6    -99.616686132     -0.213268195     -0.000002033      0.000034645    0.17
  7    -99.616686010     -0.213268073      0.000000122      0.000006942    0.16
               --- The CCSD iterations have converged ---

E(0)                                       ...    -99.400981431
E(CORR)(strong-pairs)                      ...     -0.213268073
E(CORR)(weak-pairs)                        ...     -0.002436506
E(CORR)(corrected)                         ...     -0.215704579
E(TOT)                                     ...    -99.616686010
Singles norm <S|S>**1/2                    ...      0.026031091 ( 0.014137272, 0.011893819)
T1 diagnostic                              ...      0.009838828

----------------------
LARGEST PNO AMPLITUDES
----------------------
   1a->  6a   1b->  6b       0.029394
   2a->  7a   2b->  7b       0.027176
   4a->  5a   1b->  6b       0.026669
   4a->  5a   2b->  6b       0.026669
   4a->  5a   3b->  6b       0.026669
   3a->  7a   3b->  7b       0.020038
   1a-> 10a   1b->  4b       0.020020
   4a-> 10a   3b->  4b       0.019281
   4a-> 10a   2b->  4b       0.019281
   4a-> 10a   1b->  4b       0.019280
   4a->  5a   1a->  6a       0.018790
   4a->  6a   1a->  5a       0.018790
   4a->  6a   3a->  5a       0.018790
   4a->  5a   3a->  6a       0.018790
   4a->  5a   2a->  6a       0.018790
   4a->  6a   2a->  5a       0.018790

Total # unrestricted pairs ...          0
  # of alpha-alpha pairs   ...          0
  # of alpha-beta pairs    ...          0
  # of beta-beta pairs     ...          0

-------------------------------------------
DLPNO BASED TRIPLES CORRECTION
-------------------------------------------

Singles multiplier          ...  1.000000
TCutTNO                     ... 1.000e-09
TCutMP2Pairs                ... 1.000e-05
TCutDOStrong                ... 2.000e-03
TCutMKNStrong               ... 1.000e-02
TCutDOWeak                  ... 4.000e-03
TCutMKNWeak                 ... 1.000e-01
NTCutTNO                    ... 1

Number of Triples that are to be computed         ...        36

 . . . . . . . . .
10% done  
20% done  
30% done  
40% done  
50% done  
60% done  
70% done  
80% done  
          Batch   1   done (      0.045 sec)

Triples-Correction TCutTNO=   1.000e-09 (NWeakPairs = 0  1  2  3)  -0.003457785851    0.000000000000    0.000000000000    0.000000000000
Triples-Correction  -0.003457785851

Triples timings:
Total time                      ...     0.058 sec

Triples List generation         ...     0.000 sec
TNO generation                  ...     0.012 sec
Pair density generation         ...     0.000 sec
Look up tables                  ...     0.000 sec
Generating 3-index integrals    ...     0.021 sec
Make 4-ind.int. from 3-ind.int  ...     0.001 sec
Projecting amplitudes (D + S)   ...     0.010 sec
Sorting integrals for spin cases...     0.003 sec
Calculate W0/W1                 ...     0.007 sec
Energy contr. (sum over a,b,c)  ...     0.003 sec

Everything after 3-index        ...     0.033 sec

Energy contribution AAA         ...     0.001 sec
Energy contribution AAB         ...     0.007 sec
Energy contribution ABB         ...     0.005 sec
Energy contribution BBB         ...     0.000 sec
prep                ...     0.000 sec
makeTTNO            ...     0.008 sec
copyij              ...     0.000 sec
copyil              ...     0.000 sec
transposeij         ...     0.000 sec
newMatInDoubleProj  ...     0.001 sec
BlasInDoubleProj    ...     0.005 sec
ProjSingles         ...     0.001 sec
ProjDoubles         ...     0.009 sec
overall Doubles for projection      ... 291
used Doubles for projection         ... 291


Number of Triples   (0, 1, 2, 3 weak pairs; overall):     26       0       0       0  (    26)
Number of Atoms     (0, 1, 2, 3 weak pairs; overall):    1.0     0.0     0.0     0.0  (     1)
Number of PAOs      (0, 1, 2, 3 weak pairs; overall):   31.0     0.0     0.0     0.0  (    30)
Number of AuxFcns   (0, 1, 2, 3 weak pairs; overall):   81.0     0.0     0.0     0.0  (    81)
Number of TNOs (0, 1, 2, 3 weak pairs         ):   26.0     0.0     0.0     0.0
Aver. Number of NTNO, Atoms, PAOs, AuxFcns / Triples:     26    26.0     1.0    31.0    81.0

Triples Correction (T)                     ...     -0.003457786
    alpha-alpha-alpha ... -0.000119558 (  3.5%)
    alpha-alpha-beta  ... -0.002015679 ( 58.3%)
    alpha-beta -beta  ... -0.001296483 ( 37.5%)
    beta -beta -beta  ... -0.000026066 (  0.8%)
Final correlation energy                   ...     -0.219162365
E(CCSD)                                    ...    -99.616686010
E(CCSD(T))                                 ...    -99.620143796

----------------------------
STATISTICS FOR PAIR-ENERGIES
----------------------------
Minimum, maximum and average ratios of UMP and CCSD pair-energies ... 0.90, 1.12, 1.03


------------------------------------------------------------------------------- 
                                     TIMINGS                                   
------------------------------------------------------------------------------- 


Total execution time                   ...        2.554 sec

Localization of occupied MO's          ...        0.313 sec ( 12.3%)
Fock Matrix Formation                  ...        0.229 sec (  9.0%)
Differential overlap integrals         ...        0.019 sec (  0.8%)
Organizing maps                        ...        0.001 sec (  0.0%)
RI 3-index integral generations        ...        0.082 sec (  3.2%)
RI-PNO integral transformation         ...        0.159 sec (  6.2%)
Initial Guess                          ...        0.064 sec (  2.5%)
DIIS Solver                            ...        0.007 sec (  0.3%)
State Vector Update                    ...        0.000 sec (  0.0%)
Sigma-vector construction              ...        1.330 sec ( 52.1%)
  <D|H|D>(0-ext)                       ...        0.027 sec (  2.0% of sigma)
  <D|H|D>(2-ext Fock)                  ...        0.002 sec (  0.1% of sigma)
  <D|H|D>(2-ext)                       ...        0.108 sec (  8.1% of sigma)
  <D|H|D>(4-ext)                       ...        0.266 sec ( 20.0% of sigma)
  <D|H|D>(4-ext-corr)                  ...        0.643 sec ( 48.3% of sigma)
  CCSD doubles correction              ...        0.016 sec (  1.2% of sigma)
  <S|H|S>                              ...        0.011 sec (  0.8% of sigma)
  <S|H|D>(1-ext)                       ...        0.010 sec (  0.8% of sigma)
  <D|H|S>(1-ext)                       ...        0.001 sec (  0.1% of sigma)
  <S|H|D>(3-ext)                       ...        0.022 sec (  1.7% of sigma)
  Fock-dressing                        ...        0.099 sec (  7.4% of sigma)
  Singles amplitudes                   ...        0.003 sec (  0.2% of sigma)
  (ik|jl)-dressing                     ...        0.017 sec (  1.3% of sigma)
  (ij|ab),(ia|jb)-dressing             ...        0.097 sec (  7.3% of sigma)
Total Time for computing (T)           ...        0.058 sec (  2.3% of ALL)


-------------------------   --------------------
FINAL SINGLE POINT ENERGY       -99.620143796096
-------------------------   --------------------


                            ***************************************
                            *     ORCA property calculations      *
                            ***************************************

                                    ---------------------
                                    Active property flags
                                    ---------------------
   (+) Dipole Moment


------------------------------------------------------------------------------
                       ORCA ELECTRIC PROPERTIES CALCULATION
------------------------------------------------------------------------------

Dipole Moment Calculation                       ... on
Quadrupole Moment Calculation                   ... off
Polarizability Calculation                      ... off
GBWName                                         ... F.gbw
Electron density file                           ... F.scfp.tmp

-------------
DIPOLE MOMENT
-------------
                                X             Y             Z
Electronic contribution:      0.00000       0.00000       0.00000
Nuclear contribution   :      0.00000       0.00000       0.00000
                        -----------------------------------------
Total Dipole Moment    :      0.00000       0.00000       0.00000
                        -----------------------------------------
Magnitude (a.u.)       :      0.00000
Magnitude (Debye)      :      0.00000


Timings for individual modules:

Sum of individual times         ...        4.957 sec (=   0.083 min)
GTO integral calculation        ...        0.136 sec (=   0.002 min)   2.7 %
SCF iterations                  ...        2.249 sec (=   0.037 min)  45.4 %
MDCI module                     ...        2.572 sec (=   0.043 min)  51.9 %
                             ****ORCA TERMINATED NORMALLY****
TOTAL RUN TIME: 0 days 0 hours 0 minutes 5 seconds 66 msec
