
                                 *****************
                                 * O   R   C   A *
                                 *****************

           --- An Ab Initio, DFT and Semiempirical electronic structure package ---

                  #######################################################
                  #                        -***-                        #
                  #  Department of molecular theory and spectroscopy    #
                  #              Directorship: Frank Neese              #
                  # Max Planck Institute for Chemical Energy Conversion #
                  #                  D-45470 Muelheim/Ruhr              #
                  #                       Germany                       #
                  #                                                     #
                  #                  All rights reserved                #
                  #                        -***-                        #
                  #######################################################


                         Program Version 4.0.0.2 - RELEASE -


 With contributions from (in alphabetic order):
   Daniel Aravena         : Magnetic Properties
   Michael Atanasov       : Ab Initio Ligand Field Theory
   Ute Becker             : Parallelization
   Martin Brehm           : Molecular dynamics
   Dmytro Bykov           : SCF Hessian
   Vijay G. Chilkuri      : MRCI spin determinant printing
   Dipayan Datta          : RHF DLPNO-CCSD density
   Achintya Kumar Dutta   : EOM-CC, STEOM-CC
   Dmitry Ganyushin       : Spin-Orbit,Spin-Spin,Magnetic field MRCI
   Yang Guo               : DLPNO-NEVPT2, CIM, IAO-localization
   Andreas Hansen         : Spin unrestricted coupled pair/coupled cluster methods
   Lee Huntington         : MR-EOM, pCC
   Robert Izsak           : Overlap fitted RIJCOSX, COSX-SCS-MP3, EOM
   Christian Kollmar      : KDIIS, OOCD, Brueckner-CCSD(T), CCSD density
   Simone Kossmann        : Meta GGA functionals, TD-DFT gradient, OOMP2, MP2 Hessian
   Martin Krupicka        : AUTO-CI
   Dagmar Lenk            : GEPOL surface
   Dimitrios Liakos       : Extrapolation schemes; parallel MDCI
   Dimitrios Manganas     : ROCIS; embedding schemes
   Dimitrios Pantazis     : SARC Basis sets
   Taras Petrenko         : DFT Hessian,TD-DFT gradient, ASA, ECA, R-Raman, ABS, FL, XAS/XES, NRVS
   Peter Pinski           : DLPNO-MP2
   Christoph Reimann      : Effective Core Potentials
   Marius Retegan         : Local ZFS, SOC
   Christoph Riplinger    : Optimizer, TS searches, QM/MM, DLPNO-CCSD(T), (RO)-DLPNO pert. Triples
   Tobias Risthaus        : Range-separated hybrids, TD-DFT gradient, RPA, STAB
   Michael Roemelt        : Restricted open shell CIS
   Masaaki Saitow         : Open-shell DLPNO
   Barbara Sandhoefer     : DKH picture change effects
   Kantharuban Sivalingam : CASSCF convergence, NEVPT2, FIC-MRCI
   Georgi Stoychev        : AutoAux
   Boris Wezisla          : Elementary symmetry handling
   Frank Wennmohs         : Technical directorship


 We gratefully acknowledge several colleagues who have allowed us to
 interface, adapt or use parts of their codes:
   Stefan Grimme, W. Hujo, H. Kruse,             : VdW corrections, initial TS optimization,
                  C. Bannwarth                     DFT functionals, gCP, sTDA/sTD-DF
   Ed Valeev                                     : LibInt (2-el integral package), F12 methods
   Garnet Chan, S. Sharma, J. Yang, R. Olivares  : DMRG
   Ulf Ekstrom                                   : XCFun DFT Library
   Mihaly Kallay                                 : mrcc  (arbitrary order and MRCC methods)
   Jiri Pittner, Ondrej Demel                    : Mk-CCSD
   Frank Weinhold                                : gennbo (NPA and NBO analysis)
   Christopher J. Cramer and Donald G. Truhlar   : smd solvation model


 Your calculation uses the libint2 library for the computation of 2-el integrals
 For citations please refer to: http://libint.valeyev.net

 This ORCA versions uses:
   CBLAS   interface :  Fast vector & matrix operations
   LAPACKE interface :  Fast linear algebra routines
   SCALAPACK package :  Parallel linear algebra routines


Your calculation utilizes the basis: cc-pVTZ 
       H, B-Ne : Obtained from the ccRepo (grant-hill.group.shef.ac.uk/ccrepo) Feb. 2017
                 T. H. Dunning, Jr., J. Chem. Phys. 90, 1007 (1989)
            He : Obtained from the ccRepo (grant-hill.group.shef.ac.uk/ccrepo) Feb. 2017
                 D. E. Woon, T. H. Dunning, Jr., J. Chem. Phys. 100, 2975 (1994)
  Li-Be, Na-Mg : Obtained from the ccRepo (grant-hill.group.shef.ac.uk/ccrepo) Feb. 2017
                 B. P. Prascher, D. E. Woon, K. A. Peterson, T. H. Dunning, Jr., A. K. Wilson, Theor. Chem. Acc. 128, 69 (2011)
         Al-Ar : Obtained from the ccRepo (grant-hill.group.shef.ac.uk/ccrepo) Feb. 2017
                 D. E. Woon, T. H. Dunning, Jr., J. Chem. Phys. 98, 1358 (1993)
            Ca : Obtained from the Peterson Research Group Website (tyr0.chem.wsu.edu/~kipeters) Feb. 2017
                 J. Koput, K. A. Peterson, J. Phys. Chem. 106, 9595 (2002)
         Sc-Zn : Obtained from the ccRepo (grant-hill.group.shef.ac.uk/ccrepo) Feb. 2017
                 N. B. Balabanov, K. A. Peterson, J. Chem. Phys. 123, 064107 (2005)
                 N. B. Balabanov, K. A. Peterson, J. Chem. Phys. 125, 074110 (2006)
         Ga-Kr : Obtained from the ccRepo (grant-hill.group.shef.ac.uk/ccrepo) Feb. 2017
                 A. K. Wilson, D. E. Woon, K. A. Peterson, T. H. Dunning, Jr., J. Chem. Phys. 110, 7667 (1999)
             Y : Obtained from the ccRepo (grant-hill.group.shef.ac.uk/ccrepo) Feb. 2017
                 K. A. Peterson, D. Figgen, M. Dolg, H. Stoll, J. Chem. Phys. 126, 124101 (2007)
        Ag, Au : Obtained from the Peterson Research Group Website (tyr0.chem.wsu.edu/~kipeters) Feb. 2017
                 K. A. Peterson, C. Puzzarini, Theor. Chem. Acc. 114, 283 (2005)

Your calculation utilizes the auxiliary basis: cc-pVTZ/C 
  Obtained from the EMSL Basis Set Exchange (bse.pnl.gov) Feb. 2017
  H-He, B-F, Al-Ar, Ga-Kr : F. Weigend, A. Kohn, C. Hattig, J. Chem. Phys. 116, 3175 (2002)
             Li-Be, Na-Mg : C. Haettig, Phys. Chem. Chem. Phys. 7, 59 (2005)
                       Ne : C. Haettig, Phys. Chem. Chem. Phys. 7, 59 (2005)
                            F. Weigend, A. Kohn, C. Hattig, J. Chem. Phys. 116, 3175 (2002)
                    Sc-Zn : J. G. Hill, J. A. Platts, J. Chem. Phys. 128, 044104 (2008)

Your calculation utilizes the auxiliary basis: cc-pVTZ/JK 
  H, B-F, Al-Cl, Ga-Br : Obtained from the TURBOMOLE 7.0 basis set library

WARNING: Overwriting auxiliary coulomb basis with /JK basis!
================================================================================
                                        WARNINGS
                       Please study these warnings very carefully!
================================================================================

Warning: TCutStore was < 0. Adjusted to Thresh (uncritical)

WARNING: your system is open-shell and RHF/RKS was chosen
  ===> : WILL SWITCH to UHF/UKS


WARNING: PNO calculations with unrestricted orbitals require UNOs
  ===> : Switching on UNOs

WARNING: MDCI localization requested with randomization but with NAttempts smaller than number of processes
  ===> : Setting NAttempts = Number of parallel processes!

WARNING: Post HF methods need fully converged wavefunctions
  ===> : Setting SCFConvForced true
         You can overwrite this default with %scf ConvForced false 


INFO   : the flag for use of LIBINT has been found!

================================================================================
                                       INPUT FILE
================================================================================
NAME = N.inp
|  1> ! DLPNO-CCSD(T) cc-pVTZ cc-pVTZ/C cc-pVTZ/JK RIJCOSX TightSCF
|  2> * xyz 0 4 
|  3> N  0.0  0.0  0.0
|  4> *
|  5> 
|  6>                          ****END OF INPUT****
================================================================================

                       ****************************
                       * Single Point Calculation *
                       ****************************

---------------------------------
CARTESIAN COORDINATES (ANGSTROEM)
---------------------------------
  N      0.000000    0.000000    0.000000

----------------------------
CARTESIAN COORDINATES (A.U.)
----------------------------
  NO LB      ZA    FRAG     MASS         X           Y           Z
   0 N     7.0000    0    14.007    0.000000    0.000000    0.000000

--------------------------------
INTERNAL COORDINATES (ANGSTROEM)
--------------------------------
 N      0   0   0     0.000000000000     0.00000000     0.00000000

---------------------------
INTERNAL COORDINATES (A.U.)
---------------------------
 N      0   0   0     0.000000000000     0.00000000     0.00000000

---------------------
BASIS SET INFORMATION
---------------------
There are 1 groups of distinct atoms

 Group   1 Type N   : 18s5p2d1f contracted to 4s3p2d1f pattern {8811/311/11/1}

Atom   0N    basis set group =>   1
-------------------------------
AUXILIARY BASIS SET INFORMATION
-------------------------------
There are 1 groups of distinct atoms

 Group   1 Type N   : 10s7p5d2f1g contracted to 10s7p5d2f1g pattern {1111111111/1111111/11111/11/1}

Atom   0N    basis set group =>   1
------------------------------------------------------------------------------
                           ORCA GTO INTEGRAL CALCULATION
                           -- RI-GTO INTEGRALS CHOSEN --
------------------------------------------------------------------------------

                         BASIS SET STATISTICS AND STARTUP INFO

Gaussian basis set:
 # of primitive gaussian shells          ...   26
 # of primitive gaussian functions       ...   50
 # of contracted shells                  ...   10
 # of contracted basis functions         ...   30
 Highest angular momentum                ...    3
 Maximum contraction depth               ...    8
Auxiliary gaussian basis set:
 # of primitive gaussian shells          ...   25
 # of primitive gaussian functions       ...   79
 # of contracted shells                  ...   25
 # of contracted aux-basis functions     ...   79
 Highest angular momentum                ...    4
 Maximum contraction depth               ...    1
Ratio of auxiliary to basis functions    ...  2.63
Integral package used                  ... LIBINT
 One Electron integrals                  ... done
 Ordering auxiliary basis shells         ... done
 Integral threshhold             Thresh  ...  2.500e-11
 Primitive cut-off               TCut    ...  2.500e-12
 Pre-screening matrix                    ... done
 Shell pair data                         ... 
 Ordering of the shell pairs             ... done (   0.000 sec) 55 of 55 pairs
 Determination of significant pairs      ... done (   0.000 sec)
 Creation of shell pair data             ... done (   0.000 sec)
 Storage of shell pair data              ... done (   0.000 sec)
 Shell pair data done in (   0.000 sec)
 Computing two index integrals           ... done
 Cholesky decomposition of the V-matrix  ... done


Timings:
 Total evaluation time                   ...   0.118 sec (  0.002 min)
 One electron matrix time                ...   0.003 sec (  0.000 min) =  2.8%
 Schwartz matrix evaluation time         ...   0.099 sec (  0.002 min) = 83.7%
 Two index repulsion integral time       ...   0.000 sec (  0.000 min) =  0.1%
 Cholesky decomposition of V             ...   0.000 sec (  0.000 min) =  0.1%
 Three index repulsion integral time     ...   0.000 sec (  0.000 min) =  0.0%

-------------------------------------------------------------------------------
                                 ORCA SCF
-------------------------------------------------------------------------------

------------
SCF SETTINGS
------------
Hamiltonian:
 Ab initio Hamiltonian  Method          .... Hartree-Fock(GTOs)
 RI-approximation to the Coulomb term is turned on
   Number of auxiliary basis functions  .... 79
   RIJ-COSX (HFX calculated with COS-X)).... on


General Settings:
 Integral files         IntName         .... N
 Hartree-Fock type      HFTyp           .... UHF
 Total Charge           Charge          ....    0
 Multiplicity           Mult            ....    4
 Number of Electrons    NEL             ....    7
 Basis Dimension        Dim             ....   30
 Nuclear Repulsion      ENuc            ....      0.0000000000 Eh

Convergence Acceleration:
 DIIS                   CNVDIIS         .... on
   Start iteration      DIISMaxIt       ....    12
   Startup error        DIISStart       ....  0.200000
   # of expansion vecs  DIISMaxEq       ....     5
   Bias factor          DIISBfac        ....   1.050
   Max. coefficient     DIISMaxC        ....  10.000
 Newton-Raphson         CNVNR           .... off
 SOSCF                  CNVSOSCF        .... off
 Level Shifting         CNVShift        .... on
   Level shift para.    LevelShift      ....    0.2500
   Turn off err/grad.   ShiftErr        ....    0.0010
 Zerner damping         CNVZerner       .... off
 Static damping         CNVDamp         .... on
   Fraction old density DampFac         ....    0.7000
   Max. Damping (<1)    DampMax         ....    0.9800
   Min. Damping (>=0)   DampMin         ....    0.0000
   Turn off err/grad.   DampErr         ....    0.1000
 Fernandez-Rico         CNVRico         .... off

SCF Procedure:
 Maximum # iterations   MaxIter         ....   125
 SCF integral mode      SCFMode         .... Direct
   Integral package                     .... LIBINT
 Reset frequeny         DirectResetFreq ....    20
 Integral Threshold     Thresh          ....  2.500e-11 Eh
 Primitive CutOff       TCut            ....  2.500e-12 Eh

Convergence Tolerance:
 Convergence Check Mode ConvCheckMode   .... Total+1el-Energy
 Convergence forced     ConvForced      .... 1
 Energy Change          TolE            ....  1.000e-08 Eh
 1-El. energy change                    ....  1.000e-05 Eh
 DIIS Error             TolErr          ....  5.000e-07


Diagonalization of the overlap matrix:
Smallest eigenvalue                        ... 4.223e-02
Time for diagonalization                   ...    0.000 sec
Threshold for overlap eigenvalues          ... 1.000e-08
Number of eigenvalues below threshold      ... 0
Time for construction of square roots      ...    0.000 sec
Total time needed                          ...    0.001 sec

-------------------
DFT GRID GENERATION
-------------------

General Integration Accuracy     IntAcc      ...  4.340
Radial Grid Type                 RadialGrid  ... Gauss-Chebyshev
Angular Grid (max. acc.)         AngularGrid ... Lebedev-110
Angular grid pruning method      GridPruning ... 3 (G Style)
Weight generation scheme         WeightScheme... Becke
Basis function cutoff            BFCut       ...    1.0000e-11
Integration weight cutoff        WCut        ...    1.0000e-14
Grids for H and He will be reduced by one unit

# of grid points (after initial pruning)     ...   1702 (   0.0 sec)
# of grid points (after weights+screening)   ...   1702 (   0.0 sec)
Grid point division into batches done        ...    0.0 sec
Reduced shell lists constructed in    0.0 sec

Total number of grid points                  ...     1702
Total number of batches                      ...       27
Average number of points per batch           ...       63
Average number of grid points per atom       ...     1702
Average number of shells per batch           ...     9.50 (95.00%)
Average number of basis functions per batch  ...    28.36 (94.52%)
Average number of large shells per batch     ...     8.93 (93.98%)
Average number of large basis fcns per batch ...    26.64 (93.95%)
Maximum spatial batch extension              ...  13.89, 25.65, 25.65 au
Average spatial batch extension              ...   6.82,  8.00,  8.99 au

Time for grid setup =    0.008 sec

------------------------------
INITIAL GUESS: MODEL POTENTIAL
------------------------------
Loading Hartree-Fock densities                     ... done
Calculating cut-offs                               ... done
Setting up the integral package                    ... done
Initializing the effective Hamiltonian             ... done
Starting the Coulomb interaction                   ... done (   0.0 sec)
Reading the grid                                   ... done
Mapping shells                                     ... done
Starting the XC term evaluation                    ... done (   0.0 sec)
Transforming the Hamiltonian                       ... done (   0.0 sec)
Diagonalizing the Hamiltonian                      ... done (   0.0 sec)
Back transforming the eigenvectors                 ... done (   0.0 sec)
Now organizing SCF variables                       ... done
                      ------------------
                      INITIAL GUESS DONE (   0.1 sec)
                      ------------------
--------------------
COSX GRID GENERATION
--------------------

General Integration Accuracy     IntAcc      ...  3.340
Radial Grid Type                 RadialGrid  ... Gauss-Chebyshev
Angular Grid (max. acc.)         AngularGrid ... Lebedev-50
Angular grid pruning method      GridPruning ... 3 (G Style)
Weight generation scheme         WeightScheme... Becke
Basis function cutoff            BFCut       ...    1.0000e-11
Integration weight cutoff        WCut        ...    1.0000e-14
Grids for H and He will be reduced by one unit

# of grid points (after initial pruning)     ...    566 (   0.0 sec)
# of grid points (after weights+screening)   ...    566 (   0.0 sec)
Grid point division into batches done        ...    0.0 sec
Reduced shell lists constructed in    0.0 sec

Total number of grid points                  ...      566
Total number of batches                      ...        9
Average number of points per batch           ...       62
Average number of grid points per atom       ...      566
Average number of shells per batch           ...     9.00 (90.00%)
Average number of basis functions per batch  ...    27.00 (90.00%)
Average number of large shells per batch     ...     9.00 (100.00%)
Average number of large basis fcns per batch ...    27.00 (100.00%)
Maximum spatial batch extension              ...  16.92, 20.72, 20.72 au
Average spatial batch extension              ...   7.80,  8.69, 12.65 au

Overlap Fitting                  UseSFitting ... on
Constructing numerical overlap ... done (      0.0 sec)
Inverting numerical overlap    ... done (      0.0 sec)
Obtaining analytic overlap     ... done (      0.0 sec)
Final contraction and storage  ... done (      0.0 sec)


General Integration Accuracy     IntAcc      ...  3.670
Radial Grid Type                 RadialGrid  ... Gauss-Chebyshev
Angular Grid (max. acc.)         AngularGrid ... Lebedev-50
Angular grid pruning method      GridPruning ... 3 (G Style)
Weight generation scheme         WeightScheme... Becke
Basis function cutoff            BFCut       ...    1.0000e-11
Integration weight cutoff        WCut        ...    1.0000e-14
Grids for H and He will be reduced by one unit

# of grid points (after initial pruning)     ...    706 (   0.0 sec)
# of grid points (after weights+screening)   ...    706 (   0.0 sec)
Grid point division into batches done        ...    0.0 sec
Reduced shell lists constructed in    0.0 sec

Total number of grid points                  ...      706
Total number of batches                      ...       12
Average number of points per batch           ...       58
Average number of grid points per atom       ...      706
Average number of shells per batch           ...     9.23 (92.31%)
Average number of basis functions per batch  ...    27.69 (92.31%)
Average number of large shells per batch     ...     9.23 (100.00%)
Average number of large basis fcns per batch ...    27.69 (100.00%)
Maximum spatial batch extension              ...  18.51, 22.67, 22.67 au
Average spatial batch extension              ...   6.99, 10.05, 10.86 au

Overlap Fitting                  UseSFitting ... on
Constructing numerical overlap ... done (      0.0 sec)
Inverting numerical overlap    ... done (      0.0 sec)
Obtaining analytic overlap     ... done (      0.0 sec)
Final contraction and storage  ... done (      0.0 sec)


General Integration Accuracy     IntAcc      ...  4.010
Radial Grid Type                 RadialGrid  ... Gauss-Chebyshev
Angular Grid (max. acc.)         AngularGrid ... Lebedev-110
Angular grid pruning method      GridPruning ... 3 (G Style)
Weight generation scheme         WeightScheme... Becke
Basis function cutoff            BFCut       ...    1.0000e-11
Integration weight cutoff        WCut        ...    1.0000e-14
Grids for H and He will be reduced by one unit

# of grid points (after initial pruning)     ...   1468 (   0.0 sec)
# of grid points (after weights+screening)   ...   1468 (   0.0 sec)
Grid point division into batches done        ...    0.0 sec
Reduced shell lists constructed in    0.0 sec

Total number of grid points                  ...     1468
Total number of batches                      ...       23
Average number of points per batch           ...       63
Average number of grid points per atom       ...     1468
Average number of shells per batch           ...     9.50 (95.00%)
Average number of basis functions per batch  ...    28.50 (95.00%)
Average number of large shells per batch     ...     9.08 (95.61%)
Average number of large basis fcns per batch ...    27.25 (95.61%)
Maximum spatial batch extension              ...  14.65, 24.28, 24.28 au
Average spatial batch extension              ...   7.64,  8.77,  9.58 au

Overlap Fitting                  UseSFitting ... on
Constructing numerical overlap ... done (      0.0 sec)
Inverting numerical overlap    ... done (      0.0 sec)
Obtaining analytic overlap     ... done (      0.0 sec)
Final contraction and storage  ... done (      0.0 sec)

Time for X-Grid setup             =    0.097 sec
--------------
SCF ITERATIONS
--------------
ITER       Energy         Delta-E        Max-DP      RMS-DP      [F,P]     Damp
               ***  Starting incremental Fock matrix formation  ***
  0    -54.3852470571   0.000000000000 0.01347573  0.00090002  0.1838988 0.7000
  1    -54.3890992945  -0.003852237419 0.01193211  0.00077995  0.1311588 0.7000
                               ***Turning on DIIS***
  2    -54.3921029489  -0.003003654347 0.03146303  0.00204061  0.0929810 0.0000
  3    -54.3965598587  -0.004456909806 0.01431765  0.00061096  0.0114888 0.0000
  4    -54.4002862860  -0.003726427303 0.00801449  0.00032081  0.0035640 0.0000
  5    -54.3981804442   0.002105841791 0.00543577  0.00019963  0.0017476 0.0000
  6    -54.4002889334  -0.002108489232 0.00111327  0.00004132  0.0003025 0.0000
               *** Restarting incremental Fock matrix formation ***
                                   *** Resetting DIIS ***
  7    -54.4009090774  -0.000620143960 0.00006035  0.00000272  0.0000120 0.0000
  8    -54.4009142009  -0.000005123554 0.00003380  0.00000130  0.0000066 0.0000
  9    -54.4009171320  -0.000002931035 0.00002222  0.00000081  0.0000041 0.0000
                            ***DIIS convergence achieved***

               *****************************************************
               *                     SUCCESS                       *
               *           SCF CONVERGED AFTER  10 CYCLES          *
               *****************************************************

Old exchange energy                            =     -6.608306201 Eh
New exchange energy                            =     -6.608076627 Eh
Exchange energy change after final integration =      0.000229574 Eh
Total energy after final integration           =    -54.400678213 Eh
Final COS-X integration done in                =     0.068 sec

----------------
TOTAL SCF ENERGY
----------------

Total Energy       :          -54.40067821 Eh           -1480.31771 eV

Components:
Nuclear Repulsion  :            0.00000000 Eh               0.00000 eV
Electronic Energy  :          -54.40067821 Eh           -1480.31771 eV
One Electron Energy:          -73.96062932 Eh           -2012.57104 eV
Two Electron Energy:           19.55995110 Eh             532.25333 eV

Virial components:
Potential Energy   :         -108.80916463 Eh           -2960.84790 eV
Kinetic Energy     :           54.40848642 Eh            1480.53018 eV
Virial Ratio       :            1.99985649


---------------
SCF CONVERGENCE
---------------

  Last Energy change         ...    9.3448e-06  Tolerance :   1.0000e-08
  Last MAX-Density change    ...    0.0000e+00  Tolerance :   1.0000e-07
  Last RMS-Density change    ...    0.0000e+00  Tolerance :   5.0000e-09
  Last DIIS Error            ...    3.2806e-07  Tolerance :   5.0000e-07

             **** THE GBW FILE WAS UPDATED (N.gbw) ****
             **** DENSITY FILE WAS UPDATED (N.scfp.tmp) ****
             **** ENERGY FILE WAS UPDATED (N.en.tmp) ****
----------------------
UHF SPIN CONTAMINATION
----------------------

Expectation value of <S**2>     :     3.756090
Ideal value S*(S+1) for S=1.5   :     3.750000
Deviation                       :     0.006090

----------------
ORBITAL ENERGIES
----------------
                 SPIN UP ORBITALS
  NO   OCC          E(Eh)            E(eV) 
   0   1.0000     -15.668858      -426.3713 
   1   1.0000      -1.161129       -31.5959 
   2   1.0000      -0.568680       -15.4746 
   3   1.0000      -0.568680       -15.4746 
   4   1.0000      -0.568680       -15.4746 
   5   0.0000       0.584552        15.9065 
   6   0.0000       0.584552        15.9065 
   7   0.0000       0.584552        15.9065 
   8   0.0000       0.663627        18.0582 
   9   0.0000       1.378459        37.5098 
  10   0.0000       1.378459        37.5098 
  11   0.0000       1.378459        37.5098 
  12   0.0000       1.378459        37.5098 
  13   0.0000       1.378459        37.5098 
  14   0.0000       3.169043        86.2340 
  15   0.0000       3.169043        86.2340 
  16   0.0000       3.169043        86.2340 
  17   0.0000       4.183548       113.8401 
  18   0.0000       4.183548       113.8401 
  19   0.0000       4.183548       113.8401 
  20   0.0000       4.183548       113.8401 
  21   0.0000       4.183548       113.8401 
  22   0.0000       4.183548       113.8401 
  23   0.0000       4.183548       113.8401 
  24   0.0000       4.994347       135.9031 
  25   0.0000       4.994347       135.9031 
  26   0.0000       4.994347       135.9031 
  27   0.0000       4.994347       135.9031 
  28   0.0000       4.994347       135.9031 
  29   0.0000       5.654490       153.8665 

                 SPIN DOWN ORBITALS
  NO   OCC          E(Eh)            E(eV) 
   0   1.0000     -15.579495      -423.9396 
   1   1.0000      -0.725668       -19.7464 
   2   0.0000       0.143603         3.9076 
   3   0.0000       0.143603         3.9076 
   4   0.0000       0.143603         3.9076 
   5   0.0000       0.761213        20.7137 
   6   0.0000       0.761213        20.7137 
   7   0.0000       0.761213        20.7137 
   8   0.0000       0.772090        21.0096 
   9   0.0000       1.378459        37.5098 
  10   0.0000       1.378459        37.5098 
  11   0.0000       1.378459        37.5098 
  12   0.0000       1.378459        37.5098 
  13   0.0000       1.378459        37.5098 
  14   0.0000       3.332303        90.6766 
  15   0.0000       3.332303        90.6766 
  16   0.0000       3.332303        90.6766 
  17   0.0000       4.294504       116.8594 
  18   0.0000       4.294504       116.8594 
  19   0.0000       4.294504       116.8594 
  20   0.0000       4.294504       116.8594 
  21   0.0000       4.294504       116.8594 
  22   0.0000       4.294504       116.8594 
  23   0.0000       4.294504       116.8594 
  24   0.0000       4.994347       135.9031 
  25   0.0000       4.994347       135.9031 
  26   0.0000       4.994347       135.9031 
  27   0.0000       4.994347       135.9031 
  28   0.0000       4.994347       135.9031 
  29   0.0000       5.768280       156.9629 

                    ********************************
                    * MULLIKEN POPULATION ANALYSIS *
                    ********************************

--------------------------------------------
MULLIKEN ATOMIC CHARGES AND SPIN POPULATIONS
--------------------------------------------
   0 N :   -0.000000    3.000000
Sum of atomic charges         :   -0.0000000
Sum of atomic spin populations:    3.0000000

-----------------------------------------------------
MULLIKEN REDUCED ORBITAL CHARGES AND SPIN POPULATIONS
-----------------------------------------------------
CHARGE
  0 N s       :     4.000000  s :     4.000000
      pz      :     1.000000  p :     3.000000
      px      :     1.000000
      py      :     1.000000
      dz2     :     0.000000  d :     0.000000
      dxz     :     0.000000
      dyz     :     0.000000
      dx2y2   :     0.000000
      dxy     :     0.000000
      f0      :     0.000000  f :     0.000000
      f+1     :     0.000000
      f-1     :     0.000000
      f+2     :     0.000000
      f-2     :     0.000000
      f+3     :     0.000000
      f-3     :     0.000000

SPIN
  0 N s       :    -0.000000  s :    -0.000000
      pz      :     1.000000  p :     3.000000
      px      :     1.000000
      py      :     1.000000
      dz2     :    -0.000000  d :    -0.000000
      dxz     :    -0.000000
      dyz     :    -0.000000
      dx2y2   :    -0.000000
      dxy     :    -0.000000
      f0      :     0.000000  f :     0.000000
      f+1     :     0.000000
      f-1     :     0.000000
      f+2     :    -0.000000
      f-2     :    -0.000000
      f+3     :     0.000000
      f-3     :     0.000000


                     *******************************
                     * LOEWDIN POPULATION ANALYSIS *
                     *******************************

-------------------------------------------
LOEWDIN ATOMIC CHARGES AND SPIN POPULATIONS
-------------------------------------------
   0 N :   -0.000000    3.000000

----------------------------------------------------
LOEWDIN REDUCED ORBITAL CHARGES AND SPIN POPULATIONS
----------------------------------------------------
CHARGE
  0 N s       :     4.000000  s :     4.000000
      pz      :     1.000000  p :     3.000000
      px      :     1.000000
      py      :     1.000000
      dz2     :     0.000000  d :     0.000000
      dxz     :     0.000000
      dyz     :     0.000000
      dx2y2   :     0.000000
      dxy     :     0.000000
      f0      :     0.000000  f :     0.000000
      f+1     :     0.000000
      f-1     :     0.000000
      f+2     :     0.000000
      f-2     :     0.000000
      f+3     :     0.000000
      f-3     :     0.000000

SPIN
  0 N s       :    -0.000000  s :    -0.000000
      pz      :     1.000000  p :     3.000000
      px      :     1.000000
      py      :     1.000000
      dz2     :    -0.000000  d :    -0.000000
      dxz     :     0.000000
      dyz     :    -0.000000
      dx2y2   :    -0.000000
      dxy     :    -0.000000
      f0      :     0.000000  f :     0.000000
      f+1     :     0.000000
      f-1     :     0.000000
      f+2     :    -0.000000
      f-2     :    -0.000000
      f+3     :     0.000000
      f-3     :     0.000000


                      *****************************
                      * MAYER POPULATION ANALYSIS *
                      *****************************

  NA   - Mulliken gross atomic population
  ZA   - Total nuclear charge
  QA   - Mulliken gross atomic charge
  VA   - Mayer's total valence
  BVA  - Mayer's bonded valence
  FA   - Mayer's free valence

  ATOM       NA         ZA         QA         VA         BVA        FA
  0 N      7.0000     7.0000    -0.0000     3.0122     0.0000     3.0122

  Mayer bond orders larger than 0.1



                ***UHF Natural Orbitals were saved in N.unso***


                ***UHF Natural Orbitals were saved in N.uno***

QR-MO GENERATION
 Dim     =   30
 Mult    =    4
 NEl     =    7
 N(DOMO) =    2
 N(SOMO) =    3
 N(VMO)  =   25


                ***Quasi-Restricted Orbitals were saved in N.qro***

Orbital Energies of Quasi-Restricted MO's
   0( 2) :   -15.579426 a.u.  -423.938 eV
   1( 2) :    -0.723363 a.u.   -19.684 eV
   2( 1) :    -0.176544 a.u.    -4.804 eV alpha=  -15.475 beta=    5.867
   3( 1) :    -0.176544 a.u.    -4.804 eV alpha=  -15.475 beta=    5.867
   4( 1) :    -0.176544 a.u.    -4.804 eV alpha=  -15.475 beta=    5.867
   5( 0) :     0.584552 a.u.    15.906 eV
   6( 0) :     0.584552 a.u.    15.906 eV
   7( 0) :     0.584552 a.u.    15.906 eV
   8( 0) :     0.660819 a.u.    17.982 eV
   9( 0) :     1.378459 a.u.    37.510 eV
  10( 0) :     1.378459 a.u.    37.510 eV
  11( 0) :     1.378459 a.u.    37.510 eV
  12( 0) :     1.378459 a.u.    37.510 eV
  13( 0) :     1.378459 a.u.    37.510 eV
  14( 0) :     3.169042 a.u.    86.234 eV
  15( 0) :     3.169042 a.u.    86.234 eV
  16( 0) :     3.169042 a.u.    86.234 eV
  17( 0) :     4.183547 a.u.   113.840 eV
  18( 0) :     4.183547 a.u.   113.840 eV
  19( 0) :     4.183547 a.u.   113.840 eV
  20( 0) :     4.183547 a.u.   113.840 eV
  21( 0) :     4.183548 a.u.   113.840 eV
  22( 0) :     4.183548 a.u.   113.840 eV
  23( 0) :     4.183548 a.u.   113.840 eV
  24( 0) :     4.994347 a.u.   135.903 eV
  25( 0) :     4.994347 a.u.   135.903 eV
  26( 0) :     4.994347 a.u.   135.903 eV
  27( 0) :     4.994347 a.u.   135.903 eV
  28( 0) :     4.994347 a.u.   135.903 eV
  29( 0) :     5.654424 a.u.   153.865 eV
-------
TIMINGS
-------

Total SCF time: 0 days 0 hours 0 min 1 sec 

Total time                  ....       1.666 sec
Sum of individual times     ....       1.663 sec  ( 99.8%)

Fock matrix formation       ....       1.455 sec  ( 87.3%)
  Split-RI-J                ....       0.893 sec  ( 61.4% of F)
  Chain of spheres X        ....       0.557 sec  ( 38.3% of F)
  COS-X 1 center corr.      ....       0.000 sec  (  0.0% of F)
Diagonalization             ....       0.009 sec  (  0.5%)
Density matrix formation    ....       0.000 sec  (  0.0%)
Population analysis         ....       0.002 sec  (  0.1%)
Initial guess               ....       0.091 sec  (  5.5%)
Orbital Transformation      ....       0.000 sec  (  0.0%)
Orbital Orthonormalization  ....       0.000 sec  (  0.0%)
DIIS solution               ....       0.001 sec  (  0.1%)

   <<< Auxbasis replaced with N.AUXC.tmp (Dim=81) >>> 



------------------------------------------------------------------------------- 
                              ORCA-MATRIX DRIVEN CI                            
------------------------------------------------------------------------------- 


Wavefunction type
-----------------
Correlation treatment                      ...      CCSD     
Single excitations                         ... ON
Orbital optimization                       ... OFF
Calculation of Z vector                    ... OFF
Calculation of Brueckner orbitals          ... OFF
Perturbative triple excitations            ... ON
Calculation of F12 correction              ... OFF
Frozen core treatment                      ... chemical core (2 el)
Reference Wavefunction                     ... UHF
  Alpha-MOs occ    :     1 ...    4 (  4 MO's/  4 electrons)
  Beta-MOs occ     :     1 ...    1 (  1 MO's/  1 electrons)
  Alpha-MOs virt   :     5 ...   29 ( 25 MO's              )
  Beta-MOs virt    :     2 ...   29 ( 28 MO's              )
  Quasi restricted orbitals will be used (this is similar to a ROHF determinant)
Number of AO's                             ...     30
Number of electrons                        ...      7
Number of correlated electrons             ...      5

Algorithmic settings
--------------------
Integral transformation                    ... All integrals via the RI transformation
RHF integral transformation will be used
K(C) Formation                             ... RI-DLPNO
   PNO-Integral Storage                    ... ON DISK
   PNO occupation number cut-off           ... 3.330e-07
   Singles PNO occupation number cut-off   ... 9.990e-09
   PNO Mulliken prescreening cut-off       ... 1.000e-03
   Domain cut-off (Mulliken population)    ... 1.000e-03
   PNO Normalization                       ...    1
Maximum number of iterations               ...        50
Convergence tolerance (max. residuum)      ... 1.000e-05
Level shift for amplitude update           ... 2.000e-01
Maximum number of DIIS vectors             ...         7
DIIS turned on at iteration                ...         0
Damping before turning on DIIS             ...     0.500
Damping after turning on DIIS              ...     0.000
Pair specific amplitude update             ... OFF
Natural orbital iterations                 ... OFF
Perturbative natural orbital generation    ... OFF
Printlevel                                 ... 2

Singles Fock matrix elements calculated using PNOs.

Memory handling:
----------------
Maximum memory for working arrays          ...    512 MB
Data storage in matrix containers          ... UNCOMPRESSED
Data type for integral storage             ... DOUBLE
In-Core Storage of quantities:
   Amplitudes+Sigma Vector      ... NO
   J+K operators                ... NO
   DIIS vectors                 ... NO
   3-external integrals         ... NO
   4-external integrals         ... NO

Localization treatment:
-----------------------
Localization option                        ...    2
Using relative localization threshhold     ... 1.0e-08
Neglect threshold for strong pairs         ... 1.000e-04 Eh
Prescreening threshold for very weak pairs ... 1.000e-06 Eh
Using randomized seed for localization     ... on

Initializing the integral package          ... done
Localizing the QROs
------------------------------------------------------------------------------
                           ORCA ORBITAL LOCALIZATION
------------------------------------------------------------------------------

Input orbitals are from                  ... N.proc0.qro
Output orbitals are to                   ... N.proc0.loc
Max. number of iterations                ... 128
Localizations seeded randomly            ... on
Convergence tolerance                    ... 1.000e-06
Using relative localization threshhold   ... 1.000e-08
Treshold for strong local MOs            ... 9.500e-01
Treshold for bond MOs                    ... 8.500e-01
Operator                                 ... 0
Orbital range for localization           ... 1 to 1
Localization criterion                   ... FOSTER-BOYS
Doing the dipole integrals     ... o.k.
Entering Jacobi type localization:
Using Cholesky decomposition as initial guess.
Initial value of the localization sum :     0.000000
ITERATION   0 : L=    0.0000000000 DL=  0.00e+00 (MAX-T)=   0.000 
ITERATION   1 : L=    0.0000000000 DL=  0.00e+00 (MAX-T)=   0.000 
ITERATION   2 : L=    0.0000000000 DL=  0.00e+00 (MAX-T)=   0.000 
LOCALIZATION SUM CONVERGED


------------------------------------------------------------------------------- 
                    LOCALIZED MOLECULAR ORBITAL COMPOSITIONS                   
------------------------------------------------------------------------------- 

The Mulliken populations for each LMO on each atom are computed
The LMO`s will be ordered according to atom index and type
  (A) Strongly localized MO`s have populations of >=0.950 on one atom
  (B) Two center bond orbitals have populations of >=0.850 on two atoms
  (C) Other MO`s are considered to be `delocalized`

FOUND  -   1 strongly local MO`s
       -   0 two center bond MO`s
       -   0 significantly delocalized MO`s

Rather strongly localized orbitals:
MO   1:   0N  -   1.000000
Localized MO's were stored in: N.proc0.loc

------------------------------------------------------------------------------
                           ORCA ORBITAL LOCALIZATION
------------------------------------------------------------------------------

Input orbitals are from                  ... N.proc0.loc
Output orbitals are to                   ... N.proc0.loc
Max. number of iterations                ... 128
Localizations seeded randomly            ... on
Convergence tolerance                    ... 1.000e-06
Using relative localization threshhold   ... 1.000e-08
Treshold for strong local MOs            ... 9.500e-01
Treshold for bond MOs                    ... 8.500e-01
Operator                                 ... 0
Orbital range for localization           ... 2 to 4
Localization criterion                   ... FOSTER-BOYS
Doing the dipole integrals     ... o.k.
Entering Jacobi type localization:
Using Cholesky decomposition as initial guess.
Initial value of the localization sum :     0.000000
ITERATION   0 : L=    0.0000000000 DL=  0.00e+00 (MAX-T)=   0.000 
ITERATION   1 : L=    0.0000000000 DL=  0.00e+00 (MAX-T)=   0.000 
ITERATION   2 : L=    0.0000000000 DL=  0.00e+00 (MAX-T)=   0.000 
LOCALIZATION SUM CONVERGED


------------------------------------------------------------------------------- 
                    LOCALIZED MOLECULAR ORBITAL COMPOSITIONS                   
------------------------------------------------------------------------------- 

The Mulliken populations for each LMO on each atom are computed
The LMO`s will be ordered according to atom index and type
  (A) Strongly localized MO`s have populations of >=0.950 on one atom
  (B) Two center bond orbitals have populations of >=0.850 on two atoms
  (C) Other MO`s are considered to be `delocalized`

FOUND  -   3 strongly local MO`s
       -   0 two center bond MO`s
       -   0 significantly delocalized MO`s

Rather strongly localized orbitals:
MO   4:   0N  -   1.000000
MO   3:   0N  -   1.000000
MO   2:   0N  -   1.000000
Localized MO's were stored in: N.proc0.loc

Localizing the core orbitals
------------------------------------------------------------------------------
                           ORCA ORBITAL LOCALIZATION
------------------------------------------------------------------------------

Input orbitals are from                  ... N.proc0.loc
Output orbitals are to                   ... N.proc0.loc
Max. number of iterations                ... 128
Localizations seeded randomly            ... on
Convergence tolerance                    ... 1.000e-06
Using relative localization threshhold   ... 1.000e-08
Treshold for strong local MOs            ... 9.500e-01
Treshold for bond MOs                    ... 8.500e-01
Operator                                 ... 0
Orbital range for localization           ... 0 to 0
Localization criterion                   ... FOSTER-BOYS
Doing the dipole integrals     ... o.k.
Entering Jacobi type localization:
Using Cholesky decomposition as initial guess.
Initial value of the localization sum :     0.000000
ITERATION   0 : L=    0.0000000000 DL=  0.00e+00 (MAX-T)=   0.000 
ITERATION   1 : L=    0.0000000000 DL=  0.00e+00 (MAX-T)=   0.000 
ITERATION   2 : L=    0.0000000000 DL=  0.00e+00 (MAX-T)=   0.000 
LOCALIZATION SUM CONVERGED


------------------------------------------------------------------------------- 
                    LOCALIZED MOLECULAR ORBITAL COMPOSITIONS                   
------------------------------------------------------------------------------- 

The Mulliken populations for each LMO on each atom are computed
The LMO`s will be ordered according to atom index and type
  (A) Strongly localized MO`s have populations of >=0.950 on one atom
  (B) Two center bond orbitals have populations of >=0.850 on two atoms
  (C) Other MO`s are considered to be `delocalized`

FOUND  -   1 strongly local MO`s
       -   0 two center bond MO`s
       -   0 significantly delocalized MO`s

Rather strongly localized orbitals:
MO   0:   0N  -   1.000000
Localized MO's were stored in: N.proc0.loc

Re-Reading QRO orbitals for the actual calculation
  ... duplicating orbitals and energies 
  ... adjusting occupation numbers
Warning: internal orbitals are localized - no re-canonicalization of internal orbitals

--------------
DLPNO SETTINGS
--------------

TCutMKN:           1.000e-03
TCutPAO:           1.000e-03
TCutPNO:           3.330e-07
TCutPNOSingles:    9.990e-09
TCutPAOExt:        1.000e-01
TCutPairs:         1.000e-04
TCutPre:           1.000e-06
TCutDOij:          1.000e-05
PAO overlap thresh 1.000e-08
Number of singly-occupied orbitals: 3
TCutTNO:           1.000e-09
TCutMP2Pairs:      1.000e-05
TCutDOStrong:      2.000e-03
TCutMKNStrong:     1.000e-02
TCutMKNWeak:       1.000e-01
TCutDOWeak:        4.000e-03
NTCutTNO:          1
Using PNOs for Singles Fock computation
--------------------------
Reading one-electron matrix from N.H.tmp ...done
Entering RIJCOSX section for the open-shell Fock matrices
Retrieving the Coulomb fitting basis              ... done
Calculating the full J-matrix                     ... done
Calculating all K-matrices                        ... done
RIJCOSX finished
Reference energy                           ...    -54.397200647
Calculating differential overlap integrals (occ,PAO) ... ok
 >> Construction of the PNO with the Koopmans (K)-matrix << 
Entering the RI transformation section

-----------------
RI-TRANSFORMATION (AUX index driven)
-----------------

Dimension of the orbital-basis         ... 30
Dimension of the aux-basis             ... 81
Transformation of internal MOs         ...    2-   4
Number Format for Storage              ... Double (8 Byte)
Integral mode                          ... Direct

First Phase: integral generation and transformation of MO indices
  Aux angular momentum 0               ... done (    0.001 sec)
  Aux angular momentum 1               ... done (    0.001 sec)
  Aux angular momentum 2               ... done (    0.001 sec)
  Aux angular momentum 3               ... done (    0.001 sec)
  Aux angular momentum 4               ... done (    0.000 sec)
Closing buffer VIJ ( 0.00 GB; CompressionRatio= 0.80)
  Phase 1 completed in     0.069 sec
Second Phase: sorting and transformation of aux index

IJ-Transformation
Memory available                       ... 512 MB 
Max. # MO pairs treated in a batch     ... 3    
# of internal orbitals                 ... 3
# batches for internal orbitals        ... 1
Closing buffer IJV ( 0.00 GB; CompressionRatio= 0.98)
(ij|v) transformation done in     0.000 sec

  Phase 2 completed in     0.000 sec
RI-Integral transformation completed in     0.069 sec

-----------------------
RI-FORMATION OF (ij|kl)
-----------------------

Max core memory to be used            ... 512 MB
Memory needed per MO pair             ...   0.0 MB
# of MO pairs included in trafo       ... 6
# of MO pairs treated in a batch      ... 6
# of batches needed                   ... 1
Data format used                      ... DOUBLE
 done (    0.000 sec)
Closing buffer JIJ ( 0.00 GB; CompressionRatio= 0.80)
(ij|kl) transformation completed in     0.000 sec
     ... leaving the RI transformation section
 >> 4-active ERIs are generated & stored in-core fast memory 
 >> End construction..
F12 correction will NOT be calculated
 >>>>>>>>>>>>>>>>>>>>>>>>>>>>>>>>>>>>> 
       Dipole-based Prescreening       
 <<<<<<<<<<<<<<<<<<<<<<<<<<<<<<<<<<<<< 
Threshold for domain construction in prescreening:
   TCutDO    ...     1.0e-02
--------------------------
ELECTRON PAIR PRESCREENING
--------------------------

PAO based multipole pair screening          .... used
   TCutDOij = 1.000000e-05
   TCutPre  = 1.000000e-06
 done

sum of pair energies estimated for screened out pairs ...       0.000000000000 Eh
                                                           
  __   __        __   ___     __        ___  __   __       
 /  ` |__) |  | |  \ |__     / _` |  | |__  /__` /__`     
 \__, |  \ \__/ |__/ |___    \__> \__/ |___ .__/ .__/ 
                                                           

Parameters for the crude guess:
   TScaleDOMP2PreScr   : 2.000e+00
   TScaleMKNMP2PreScr  : 1.000e+01
   TScalePNOMP2PreScr  : 1.000e+00
   TScalePairsMP2PreScr: 1.000e+00
   PAO overlap thresh    1.000e-08
Thresholds for map construction and integral transformation for crude MP2:
   TCutMKN                    ...     1.0e-02
   TCutDO                     ...     2.0e-02
   TCutPairs                  ...     1.0e-04
   TCutPairs_CrudeMP2         ...     1.0e-04
   TCutPNO_CrudeMP2           ...     3.3e-07
   TCutPNOSingles_CrudeMP2    ...     1.0e-08

------------------------------
LOCAL RI (xy|k) TRANSFORMATION
------------------------------

Dimension of OBS basis                 ... 30
Dimension of (OBS)PAOs                 ... 30
Dimension of the aux-basis             ... 81
Integral mode                          ... Direct

First Phase: integral generation and first transformation of MO indices
 number of shell sets computed                       =               1265
 number of shell sets in domains (without screening) =               1265
 number of shell sets without domains or screening   =               1265
Closing buffer N.kxy_op0.tmp.proc0 ( 0.00 GB; CompressionRatio= 0.99)
Local 3-center integral transformation (op=0) completed in     0.020 sec

-----------------------------------------
   _  _______   __    ___  _  ______     
  / |/ / __/ | / /___/ _ \/ |/ / __ \  
 /    / _/ | |/ /___/ ___/    / /_/ /    
/_/|_/___/ |___/   /_/  /_/|_/\____/    
                                         
                for open-shell molecules 
-----------------------------------------


 ==> UMP guess in NEV-PNO space 

Truncation parameters                       .... 
    PAOOverlapThresh     =        1.000e-08
    TCutPairs            =        1.000e-04
    TCutMKN              =        1.000e-02
    TCutDO               =        1.000e-02
    TCutCMO              =        1.000e-03
    TCutCPAO             =        1.000e-03
    TCutPNO              =        3.330e-07
    TScaleTCutPNO_SS     =        1.000e+00
    TScaleTCutPNO_SD     =        1.000e+00
    TCutDO_Crude         =        2.000e-02
    TCutMKN_Crude        =        1.000e-02
    TCutPairs_Crude      =        1.000e-04
    TCutPNO_Crude        =        3.330e-07
Spin component scaling in ijab excitation            .... not used

Formation of guess energy and open-shell PNO.

NEV-PNO operators..
  E(ij->ab)
  E(ip->ab)
  E(pq->ab)
  E(ij->pq)
  E(pq->ra)
  E(ip->qr)
  E(ip->aq) and E(ip->qa)

 Norm of Semi-Internal Fock Operators ...   0.0001417365
  ==> Semi-internal excitations detected 

   .... Finished loop over pairs

 # of CC pairs      ... [13/13] 
 # of PT pairs      ... [0/13] 
 # of skipped pairs ... [0/13] 

 Initial PAO correlation energy (all pairs)    ...  -0.0971602327 Eh
 Energy constituents in PAO basis (Eh):
  | Vijab(+0) ...  -0.0087313500
  | Viab (-1) ...  -0.0279005220
  | Vab  (-2) ...  -0.0189426171
  | Va   (-1) ...  -0.0000526033
  | Vija (+1) ...  -0.0018855706
  | Via  (+0) ...  -0.0396475696
 Initial PNO correlation energy                ...  -0.0961235501 Eh
 Energy constituents in PNO basis (Eh):
  | Vijab(+0) ...  -0.0087313500 (err=  0.0000000000)
  | Viab (-1) ...  -0.0268638394 (err=  0.0010366826)
  | Vab  (-2) ...  -0.0189426171 (err=  0.0000000000)
  | Va   (-1) ...  -0.0000526033 (err=  0.0000000000)
  | Vija (+1) ...  -0.0018855706 (err=  0.0000000000)
  | Via  (+0) ...  -0.0396475696 (err=  0.0000000000)
 Sum of total truncation errors ...   0.0010366826 Eh
  | Pair screening ...   0.0000000000 Eh
  | PNO truncation ...   0.0010366826 Eh

 UMP2 correlation energy (PAO) ...  -0.0927950371
  | alpha-alpha ...  -0.0277527534 (NP_aa=    6)
  | alpha-beta  ...  -0.0650422838 (NP_ab=    4)
  | beta -beta  ...   0.0000000000 (NP_bb=    0)
 UMP2 correlation energy (PNO) ...  -0.0917705924
  | alpha-alpha ...  -0.0270787417 (err=  0.0006740116, NP_aa=    6)
  | alpha-beta  ...  -0.0646918507 (err=  0.0003504331, NP_ab=    4)
  | beta -beta  ...   0.0000000000 (err=  0.0000000000, NP_bb=    0)
 Sum of total UMP2 truncation errors ...   0.0010244448 Eh
  | Pair screening ...   0.0000000000 Eh
  | PNO truncation ...   0.0010244448 Eh
 Timing for NEV-PNO construction (sec.)
  | Intermediate construction  ..            0.002
  | Amplitude construction     ..            0.001
  | Total time                 ..            0.003
 Making pair pair interaction lists ...      ok
                                                 
  ___         ___     __        ___  __   __     
 |__  | |\ | |__     / _` |  | |__  /__` /__`   
 |    | | \| |___    \__> \__/ |___ .__/ .__/ 
                                                 

Thresholds for map construction and integral transformation:
   TCutMKN   ...     1.0e-03
   TCutDO    ...     1.0e-02
   TCutCMO   ...     1.0e-03
   TCutCPAO  ...     1.0e-03

Thresholds for map construction and integral transformation for strong Triples:
   TCutMKN   ...     1.0e-02
   TCutDO    ...     2.0e-02
   TCutCMO   ...     1.0e-03
   TCutCPAO  ...     1.0e-03

Thresholds for map construction and integral transformation for weak Triples:
   TCutMKN   ...     1.0e-01
   TCutDO    ...     4.0e-02
   TCutCMO   ...     1.0e-03
   TCutCPAO  ...     1.0e-03


------------------------------
LOCAL RI (xy|k) TRANSFORMATION
------------------------------

Dimension of OBS basis                 ... 30
Dimension of (OBS)PAOs                 ... 30
Dimension of the aux-basis             ... 81
Integral mode                          ... Direct

First Phase: integral generation and first transformation of MO indices
 number of shell sets computed                       =               1265
 number of shell sets in domains (without screening) =               1265
 number of shell sets without domains or screening   =               1265
Closing buffer N.kxy_op0.tmp.proc0 ( 0.00 GB; CompressionRatio= 0.99)
Local 3-center integral transformation (op=0) completed in     0.020 sec

 ==> UMP guess in NEV-PNO space 

Truncation parameters                       .... 
    PAOOverlapThresh     =        1.000e-08
    TCutPairs            =        1.000e-04
    TCutMKN              =        1.000e-03
    TCutDO               =        1.000e-02
    TCutCMO              =        1.000e-03
    TCutCPAO             =        1.000e-03
    TCutPNO              =        3.330e-07
    TScaleTCutPNO_SS     =        1.000e+00
    TScaleTCutPNO_SD     =        1.000e+00
    TScaleTCutPairs_Somo =        3.300e-01
    TCutPairs_MP2        =        1.000e-05
Spin component scaling in ijab excitation            .... not used

Formation of guess energy and open-shell PNO.

NEV-PNO operators..
  E(ij->ab)
  E(ip->ab)
  E(pq->ab)
  E(ij->pq)
  E(pq->ra)
  E(ip->qr)
  E(ip->aq) and E(ip->qa)

   .... Finished loop over pairs

 # of surviving pairs is 13 out of 13 pairs 

 Initial PAO correlation energy (all pairs)    ...  -0.0971602327 Eh
 Energy constituents in PAO basis (Eh):
  | Vijab(+0) ...  -0.0087313500
  | Viab (-1) ...  -0.0279005220
  | Vab  (-2) ...  -0.0189426171
  | Va   (-1) ...  -0.0000526033
  | Vija (+1) ...  -0.0018855706
  | Via  (+0) ...  -0.0396475696
 Initial PNO correlation energy                ...  -0.0961235501 Eh
 Energy constituents in PNO basis (Eh):
  | Vijab(+0) ...  -0.0087313500 (err=  0.0000000000)
  | Viab (-1) ...  -0.0268638394 (err=  0.0010366826)
  | Vab  (-2) ...  -0.0189426171 (err=  0.0000000000)
  | Va   (-1) ...  -0.0000526033 (err=  0.0000000000)
  | Vija (+1) ...  -0.0018855706 (err=  0.0000000000)
  | Via  (+0) ...  -0.0396475696 (err=  0.0000000000)
 Sum of total truncation errors ...   0.0010366826 Eh
  | Pair screening ...   0.0000000000 Eh
  | PNO truncation ...   0.0010366826 Eh

 UMP2 correlation energy (PAO) ...  -0.0927950371
  | alpha-alpha ...  -0.0277527534 (NP_aa=    6)
  | alpha-beta  ...  -0.0650422838 (NP_ab=    4)
  | beta -beta  ...   0.0000000000 (NP_bb=    0)
 UMP2 correlation energy (PNO) ...  -0.0917705924
  | alpha-alpha ...  -0.0270787417 (err=  0.0006740116, NP_aa=    6)
  | alpha-beta  ...  -0.0646918507 (err=  0.0003504331, NP_ab=    4)
  | beta -beta  ...   0.0000000000 (err=  0.0000000000, NP_bb=    0)
 Sum of total UMP2 truncation errors ...   0.0010244448 Eh
  | Pair screening ...   0.0000000000 Eh
  | PNO truncation ...   0.0010244448 Eh
 Timing for NEV-PNO construction (sec.)
  | Intermediate construction  ..            0.002
  | Amplitude construction     ..            0.001
  | Total time                 ..            0.003
 Making pair pair interaction lists ...      ok
 Total size for 2-ext PNO integrals ...      0.1 MB
Checking the number of SOMO/SOMO doubles PNOs ...  No PNOs should be truncated!


------------------------------
LOCAL RI (xy|k) TRANSFORMATION
------------------------------

Dimension of OBS basis                 ... 30
Dimension of (OBS)PAOs                 ... 30
Dimension of the aux-basis             ... 81
Integral mode                          ... Direct

First Phase: integral generation and first transformation of MO indices
 number of shell sets computed                       =               1265
 number of shell sets in domains (without screening) =               1265
 number of shell sets without domains or screening   =               1265
Closing buffer N.VABPAO.tmp.proc0 ( 0.00 GB; CompressionRatio= 1.00)
Local 3-center integral transformation (op=0) completed in     0.021 sec

------------------------------
LOCAL RI (xy|k) TRANSFORMATION
------------------------------

Dimension of OBS basis                 ... 30
Dimension of (OBS)PAOs                 ... 30
Dimension of the aux-basis             ... 81
Integral mode                          ... Direct

First Phase: integral generation and first transformation of MO indices
 number of shell sets computed                       =               1265
 number of shell sets in domains (without screening) =               1265
 number of shell sets without domains or screening   =               1265
Closing buffer N.kxy_op0.tmp.proc0 ( 0.00 GB; CompressionRatio= 0.91)
Local 3-center integral transformation (op=0) completed in     0.020 sec


-------------------------------------
Pair Pair Term precalculation with     
RI-(ij|mn) and (im|jn) transformation  
ON THE FLY                             
-------------------------------------

   IBatch   1 (of   1)              ... done (    0.118 sec)
Total EXT                           ...           0.118 sec

---------------------
RI-PNO TRANSFORMATION
---------------------

Total Number of PNOs                   ...   304
Total Number of IJ-PNOs                ...    28
Total Number of IP-PNOs                ...    66
Total Number of PQ-PNOs                ...   210
Total Number of IJ-pairs               ...     1
Total Number of PI-pairs               ...     3
Total Number of PQ-pairs               ...     9
Average number of PNOs per pair        ...    23
Maximal number of PNOs per pair        ...    28
>> Statistics for ij-pairs..
   #pairs with  1 -  5 PNOs   :    0
   #pairs with  6 - 10 PNOs   :    0
   #pairs with 11 - 15 PNOs   :    0
   #pairs with 16 - 20 PNOs   :    0
   #pairs with 21 - 25 PNOs   :    0
   #pairs with 26 - 30 PNOs   :    1
   #pairs with 31 - 35 PNOs   :    0
   #pairs with 36 - 40 PNOs   :    0
   #pairs with 41 - 45 PNOs   :    0
   #pairs with 46 - 50 PNOs   :    0
>> Statistics for ip-pairs..
   #pairs with  1 -  5 PNOs   :    0
   #pairs with  6 - 10 PNOs   :    0
   #pairs with 11 - 15 PNOs   :    0
   #pairs with 16 - 20 PNOs   :    0
   #pairs with 21 - 25 PNOs   :    3
   #pairs with 26 - 30 PNOs   :    0
   #pairs with 31 - 35 PNOs   :    0
   #pairs with 36 - 40 PNOs   :    0
   #pairs with 41 - 45 PNOs   :    0
   #pairs with 46 - 50 PNOs   :    0
>> Statistics for pq-pairs..
   #pairs with  1 -  5 PNOs   :    0
   #pairs with  6 - 10 PNOs   :    0
   #pairs with 11 - 15 PNOs   :    0
   #pairs with 16 - 20 PNOs   :    0
   #pairs with 21 - 25 PNOs   :    6
   #pairs with 26 - 30 PNOs   :    3
   #pairs with 31 - 35 PNOs   :    0
   #pairs with 36 - 40 PNOs   :    0
   #pairs with 41 - 45 PNOs   :    0
   #pairs with 46 - 50 PNOs   :    0

Generation of (ij|ab)[P] integrals            ... on
Generation of (ia|bc)[P],(ja|bc)[P] integrals ... on
Storage of 3 and 4 external integrals         ... on
Generation of ALL (ka|bc)[P] integrals        ... on
Keep RI integrals in memory                   ... off

Ibatch:  1 (of  1)
Starting 2-4 index PNO integral generation ... done

Timings:
Total PNO integral transformation time     ...          0.036 sec
Size of the 3-external file                ...         1 MB
Size of the 4-external file                ...         3 MB
Size of the IKJL file                      ...         0 MB
Size of the all 3-external file            ...         2 MB
Size of the 1-external file                ...         0 MB

Size of the PAO/PNO coefficient matrices   ...       0.1 MB

Making pair/pair overlap matrices          ... done (    0.002 sec)
Size of the pair overlap file              ...       0.0 MB
Total # unrestricted pairs ...         10
  # of alpha-alpha pairs   ...          6
  # of alpha-beta pairs    ...          4
  # of beta-beta pairs     ...          0
Constructing the guess amplitudes          ... done (    0.000 sec)

-------------------------
FINAL STARTUP INFORMATION
-------------------------

E(0)                                       ...    -54.397200647
E(SL-UMP2 in NEV-PNO space)                ...     -0.091770592
Initial E(tot)                             ...    -54.488971239
<T|T>                                      ...      0.017716486
Number of unrestricted pairs included      ... 10
Total number of pairs                      ... 10
----------------------------------------------------------
                     OPEN-SHELL COUPLED CLUSTER ITERATIONS
----------------------------------------------------------

Number of PNO amplitudes to be optimized        ...             4039
Number of canonical amplitudes for strong pairs ...             6678
Untruncated number of canonical amplitudes      ...             6678

Iter       E(tot)           E(Corr)          Delta-E          Residual     Time
  0    -54.492295159     -0.094070067     -0.002299475      0.018855098    0.05
                           *** Turning on DIIS ***
  1    -54.503156792     -0.104931700     -0.010861634      0.005639475    0.05
  2    -54.506197515     -0.107972423     -0.003040723      0.001123055    0.05
  3    -54.506445249     -0.108220157     -0.000247734      0.000432078    0.05
  4    -54.506475050     -0.108249959     -0.000029802      0.000172858    0.05
  5    -54.506478721     -0.108253629     -0.000003671      0.000050979    0.05
  6    -54.506478523     -0.108253431      0.000000199      0.000009959    0.05
               --- The CCSD iterations have converged ---

E(0)                                       ...    -54.397200647
E(CORR)(strong-pairs)                      ...     -0.108253431
E(CORR)(weak-pairs)                        ...     -0.001024445
E(CORR)(corrected)                         ...     -0.109277875
E(TOT)                                     ...    -54.506478523
Singles norm <S|S>**1/2                    ...      0.032623253 ( 0.027345057, 0.005278196)
T1 diagnostic                              ...      0.014589562

----------------------
LARGEST PNO AMPLITUDES
----------------------
   3a->  9a   1b->  3b       0.039976
   2a->  9a   1b->  2b       0.039976
   4a->  9a   1b->  4b       0.039976
   3a->  7a   1b->  4b       0.034697
   3a->  8a   1b->  2b       0.034697
   2a->  7a   1b->  4b       0.034694
   2a->  8a   1b->  3b       0.034694
   4a->  8a   1b->  2b       0.034312
   4a->  7a   1b->  3b       0.034312
   1a->  8a  -1a-> -1a       0.032376
   3a->  5a   1b->  6b       0.030772
   2a->  5a   1b->  6b       0.030772
   4a->  5a   1b->  6b       0.030772
   4a->  5a   2a->  6a       0.030420
   4a->  6a   2a->  5a       0.030420
   4a->  6a   3a->  5a       0.030420

Total # unrestricted pairs ...          0
  # of alpha-alpha pairs   ...          0
  # of alpha-beta pairs    ...          0
  # of beta-beta pairs     ...          0

-------------------------------------------
DLPNO BASED TRIPLES CORRECTION
-------------------------------------------

Singles multiplier          ...  1.000000
TCutTNO                     ... 1.000e-09
TCutMP2Pairs                ... 1.000e-05
TCutDOStrong                ... 2.000e-03
TCutMKNStrong               ... 1.000e-02
TCutDOWeak                  ... 4.000e-03
TCutMKNWeak                 ... 1.000e-01
NTCutTNO                    ... 1

Number of Triples that are to be computed         ...        36

 . . . . . . . . .
10% done  
20% done  
30% done  
40% done  
          Batch   1   done (      0.019 sec)

Triples-Correction TCutTNO=   1.000e-09 (NWeakPairs = 0  1  2  3)  -0.001977061089    0.000000000000    0.000000000000    0.000000000000
Triples-Correction  -0.001977061089

Triples timings:
Total time                      ...     0.028 sec

Triples List generation         ...     0.000 sec
TNO generation                  ...     0.008 sec
Pair density generation         ...     0.000 sec
Look up tables                  ...     0.000 sec
Generating 3-index integrals    ...     0.013 sec
Make 4-ind.int. from 3-ind.int  ...     0.000 sec
Projecting amplitudes (D + S)   ...     0.003 sec
Sorting integrals for spin cases...     0.001 sec
Calculate W0/W1                 ...     0.002 sec
Energy contr. (sum over a,b,c)  ...     0.001 sec

Everything after 3-index        ...     0.012 sec

Energy contribution AAA         ...     0.001 sec
Energy contribution AAB         ...     0.002 sec
Energy contribution ABB         ...     0.000 sec
Energy contribution BBB         ...     0.000 sec
prep                ...     0.000 sec
makeTTNO            ...     0.002 sec
copyij              ...     0.000 sec
copyil              ...     0.000 sec
transposeij         ...     0.000 sec
newMatInDoubleProj  ...     0.000 sec
BlasInDoubleProj    ...     0.001 sec
ProjSingles         ...     0.000 sec
ProjDoubles         ...     0.002 sec
overall Doubles for projection      ... 81
used Doubles for projection         ... 81


Number of Triples   (0, 1, 2, 3 weak pairs; overall):      7       0       0       0  (     7)
Number of Atoms     (0, 1, 2, 3 weak pairs; overall):    1.0     0.0     0.0     0.0  (     1)
Number of PAOs      (0, 1, 2, 3 weak pairs; overall):   33.0     0.0     0.0     0.0  (    30)
Number of AuxFcns   (0, 1, 2, 3 weak pairs; overall):   81.0     0.0     0.0     0.0  (    81)
Number of TNOs (0, 1, 2, 3 weak pairs         ):   27.3     0.0     0.0     0.0
Aver. Number of NTNO, Atoms, PAOs, AuxFcns / Triples:      7    27.3     1.0    33.0    81.0

Triples Correction (T)                     ...     -0.001977061
    alpha-alpha-alpha ... -0.000191128 (  9.7%)
    alpha-alpha-beta  ... -0.001785933 ( 90.3%)
    alpha-beta -beta  ...  0.000000000 ( -0.0%)
    beta -beta -beta  ...  0.000000000 ( -0.0%)
Final correlation energy                   ...     -0.111254937
E(CCSD)                                    ...    -54.506478523
E(CCSD(T))                                 ...    -54.508455584

----------------------------
STATISTICS FOR PAIR-ENERGIES
----------------------------
Minimum, maximum and average ratios of UMP and CCSD pair-energies ... 1.04, 1.24, 1.11


------------------------------------------------------------------------------- 
                                     TIMINGS                                   
------------------------------------------------------------------------------- 


Total execution time                   ...        1.543 sec

Localization of occupied MO's          ...        0.313 sec ( 20.3%)
Fock Matrix Formation                  ...        0.219 sec ( 14.2%)
Differential overlap integrals         ...        0.019 sec (  1.2%)
Organizing maps                        ...        0.001 sec (  0.1%)
RI 3-index integral generations        ...        0.082 sec (  5.3%)
RI-PNO integral transformation         ...        0.156 sec ( 10.1%)
Initial Guess                          ...        0.079 sec (  5.1%)
DIIS Solver                            ...        0.003 sec (  0.2%)
State Vector Update                    ...        0.000 sec (  0.0%)
Sigma-vector construction              ...        0.357 sec ( 23.2%)
  <D|H|D>(0-ext)                       ...        0.004 sec (  1.2% of sigma)
  <D|H|D>(2-ext)                       ...        0.030 sec (  8.4% of sigma)
  <D|H|D>(4-ext)                       ...        0.071 sec ( 19.9% of sigma)
  <D|H|D>(4-ext-corr)                  ...        0.139 sec ( 38.9% of sigma)
  CCSD doubles correction              ...        0.005 sec (  1.5% of sigma)
  <S|H|S>                              ...        0.007 sec (  2.1% of sigma)
  <S|H|D>(1-ext)                       ...        0.004 sec (  1.2% of sigma)
  <S|H|D>(3-ext)                       ...        0.007 sec (  1.8% of sigma)
  Fock-dressing                        ...        0.041 sec ( 11.4% of sigma)
  Singles amplitudes                   ...        0.002 sec (  0.5% of sigma)
  (ik|jl)-dressing                     ...        0.005 sec (  1.4% of sigma)
  (ij|ab),(ia|jb)-dressing             ...        0.035 sec (  9.8% of sigma)
Total Time for computing (T)           ...        0.028 sec (  1.8% of ALL)


-------------------------   --------------------
FINAL SINGLE POINT ENERGY       -54.508455583608
-------------------------   --------------------


                            ***************************************
                            *     ORCA property calculations      *
                            ***************************************

                                    ---------------------
                                    Active property flags
                                    ---------------------
   (+) Dipole Moment


------------------------------------------------------------------------------
                       ORCA ELECTRIC PROPERTIES CALCULATION
------------------------------------------------------------------------------

Dipole Moment Calculation                       ... on
Quadrupole Moment Calculation                   ... off
Polarizability Calculation                      ... off
GBWName                                         ... N.gbw
Electron density file                           ... N.scfp.tmp

-------------
DIPOLE MOMENT
-------------
                                X             Y             Z
Electronic contribution:     -0.00000       0.00000       0.00000
Nuclear contribution   :      0.00000       0.00000       0.00000
                        -----------------------------------------
Total Dipole Moment    :     -0.00000       0.00000       0.00000
                        -----------------------------------------
Magnitude (a.u.)       :      0.00000
Magnitude (Debye)      :      0.00000


Timings for individual modules:

Sum of individual times         ...        3.379 sec (=   0.056 min)
GTO integral calculation        ...        0.137 sec (=   0.002 min)   4.1 %
SCF iterations                  ...        1.681 sec (=   0.028 min)  49.7 %
MDCI module                     ...        1.561 sec (=   0.026 min)  46.2 %
                             ****ORCA TERMINATED NORMALLY****
TOTAL RUN TIME: 0 days 0 hours 0 minutes 3 seconds 479 msec
