
                                 *****************
                                 * O   R   C   A *
                                 *****************

           --- An Ab Initio, DFT and Semiempirical electronic structure package ---

                  #######################################################
                  #                        -***-                        #
                  #  Department of molecular theory and spectroscopy    #
                  #              Directorship: Frank Neese              #
                  # Max Planck Institute for Chemical Energy Conversion #
                  #                  D-45470 Muelheim/Ruhr              #
                  #                       Germany                       #
                  #                                                     #
                  #                  All rights reserved                #
                  #                        -***-                        #
                  #######################################################


                         Program Version 4.0.0.2 - RELEASE -


 With contributions from (in alphabetic order):
   Daniel Aravena         : Magnetic Properties
   Michael Atanasov       : Ab Initio Ligand Field Theory
   Ute Becker             : Parallelization
   Martin Brehm           : Molecular dynamics
   Dmytro Bykov           : SCF Hessian
   Vijay G. Chilkuri      : MRCI spin determinant printing
   Dipayan Datta          : RHF DLPNO-CCSD density
   Achintya Kumar Dutta   : EOM-CC, STEOM-CC
   Dmitry Ganyushin       : Spin-Orbit,Spin-Spin,Magnetic field MRCI
   Yang Guo               : DLPNO-NEVPT2, CIM, IAO-localization
   Andreas Hansen         : Spin unrestricted coupled pair/coupled cluster methods
   Lee Huntington         : MR-EOM, pCC
   Robert Izsak           : Overlap fitted RIJCOSX, COSX-SCS-MP3, EOM
   Christian Kollmar      : KDIIS, OOCD, Brueckner-CCSD(T), CCSD density
   Simone Kossmann        : Meta GGA functionals, TD-DFT gradient, OOMP2, MP2 Hessian
   Martin Krupicka        : AUTO-CI
   Dagmar Lenk            : GEPOL surface
   Dimitrios Liakos       : Extrapolation schemes; parallel MDCI
   Dimitrios Manganas     : ROCIS; embedding schemes
   Dimitrios Pantazis     : SARC Basis sets
   Taras Petrenko         : DFT Hessian,TD-DFT gradient, ASA, ECA, R-Raman, ABS, FL, XAS/XES, NRVS
   Peter Pinski           : DLPNO-MP2
   Christoph Reimann      : Effective Core Potentials
   Marius Retegan         : Local ZFS, SOC
   Christoph Riplinger    : Optimizer, TS searches, QM/MM, DLPNO-CCSD(T), (RO)-DLPNO pert. Triples
   Tobias Risthaus        : Range-separated hybrids, TD-DFT gradient, RPA, STAB
   Michael Roemelt        : Restricted open shell CIS
   Masaaki Saitow         : Open-shell DLPNO
   Barbara Sandhoefer     : DKH picture change effects
   Kantharuban Sivalingam : CASSCF convergence, NEVPT2, FIC-MRCI
   Georgi Stoychev        : AutoAux
   Boris Wezisla          : Elementary symmetry handling
   Frank Wennmohs         : Technical directorship


 We gratefully acknowledge several colleagues who have allowed us to
 interface, adapt or use parts of their codes:
   Stefan Grimme, W. Hujo, H. Kruse,             : VdW corrections, initial TS optimization,
                  C. Bannwarth                     DFT functionals, gCP, sTDA/sTD-DF
   Ed Valeev                                     : LibInt (2-el integral package), F12 methods
   Garnet Chan, S. Sharma, J. Yang, R. Olivares  : DMRG
   Ulf Ekstrom                                   : XCFun DFT Library
   Mihaly Kallay                                 : mrcc  (arbitrary order and MRCC methods)
   Jiri Pittner, Ondrej Demel                    : Mk-CCSD
   Frank Weinhold                                : gennbo (NPA and NBO analysis)
   Christopher J. Cramer and Donald G. Truhlar   : smd solvation model


 Your calculation uses the libint2 library for the computation of 2-el integrals
 For citations please refer to: http://libint.valeyev.net

 This ORCA versions uses:
   CBLAS   interface :  Fast vector & matrix operations
   LAPACKE interface :  Fast linear algebra routines
   SCALAPACK package :  Parallel linear algebra routines


Your calculation utilizes the basis: cc-pVTZ 
       H, B-Ne : Obtained from the ccRepo (grant-hill.group.shef.ac.uk/ccrepo) Feb. 2017
                 T. H. Dunning, Jr., J. Chem. Phys. 90, 1007 (1989)
            He : Obtained from the ccRepo (grant-hill.group.shef.ac.uk/ccrepo) Feb. 2017
                 D. E. Woon, T. H. Dunning, Jr., J. Chem. Phys. 100, 2975 (1994)
  Li-Be, Na-Mg : Obtained from the ccRepo (grant-hill.group.shef.ac.uk/ccrepo) Feb. 2017
                 B. P. Prascher, D. E. Woon, K. A. Peterson, T. H. Dunning, Jr., A. K. Wilson, Theor. Chem. Acc. 128, 69 (2011)
         Al-Ar : Obtained from the ccRepo (grant-hill.group.shef.ac.uk/ccrepo) Feb. 2017
                 D. E. Woon, T. H. Dunning, Jr., J. Chem. Phys. 98, 1358 (1993)
            Ca : Obtained from the Peterson Research Group Website (tyr0.chem.wsu.edu/~kipeters) Feb. 2017
                 J. Koput, K. A. Peterson, J. Phys. Chem. 106, 9595 (2002)
         Sc-Zn : Obtained from the ccRepo (grant-hill.group.shef.ac.uk/ccrepo) Feb. 2017
                 N. B. Balabanov, K. A. Peterson, J. Chem. Phys. 123, 064107 (2005)
                 N. B. Balabanov, K. A. Peterson, J. Chem. Phys. 125, 074110 (2006)
         Ga-Kr : Obtained from the ccRepo (grant-hill.group.shef.ac.uk/ccrepo) Feb. 2017
                 A. K. Wilson, D. E. Woon, K. A. Peterson, T. H. Dunning, Jr., J. Chem. Phys. 110, 7667 (1999)
             Y : Obtained from the ccRepo (grant-hill.group.shef.ac.uk/ccrepo) Feb. 2017
                 K. A. Peterson, D. Figgen, M. Dolg, H. Stoll, J. Chem. Phys. 126, 124101 (2007)
        Ag, Au : Obtained from the Peterson Research Group Website (tyr0.chem.wsu.edu/~kipeters) Feb. 2017
                 K. A. Peterson, C. Puzzarini, Theor. Chem. Acc. 114, 283 (2005)

Your calculation utilizes the auxiliary basis: cc-pVTZ/C 
  Obtained from the EMSL Basis Set Exchange (bse.pnl.gov) Feb. 2017
  H-He, B-F, Al-Ar, Ga-Kr : F. Weigend, A. Kohn, C. Hattig, J. Chem. Phys. 116, 3175 (2002)
             Li-Be, Na-Mg : C. Haettig, Phys. Chem. Chem. Phys. 7, 59 (2005)
                       Ne : C. Haettig, Phys. Chem. Chem. Phys. 7, 59 (2005)
                            F. Weigend, A. Kohn, C. Hattig, J. Chem. Phys. 116, 3175 (2002)
                    Sc-Zn : J. G. Hill, J. A. Platts, J. Chem. Phys. 128, 044104 (2008)

Your calculation utilizes the auxiliary basis: cc-pVTZ/JK 
  H, B-F, Al-Cl, Ga-Br : Obtained from the TURBOMOLE 7.0 basis set library

WARNING: Overwriting auxiliary coulomb basis with /JK basis!
================================================================================
                                        WARNINGS
                       Please study these warnings very carefully!
================================================================================

Warning: TCutStore was < 0. Adjusted to Thresh (uncritical)

WARNING: your system is open-shell and RHF/RKS was chosen
  ===> : WILL SWITCH to UHF/UKS


WARNING: PNO calculations with unrestricted orbitals require UNOs
  ===> : Switching on UNOs

WARNING: MDCI localization requested with randomization but with NAttempts smaller than number of processes
  ===> : Setting NAttempts = Number of parallel processes!

WARNING: Post HF methods need fully converged wavefunctions
  ===> : Setting SCFConvForced true
         You can overwrite this default with %scf ConvForced false 


INFO   : the flag for use of LIBINT has been found!

================================================================================
                                       INPUT FILE
================================================================================
NAME = P.inp
|  1> ! DLPNO-CCSD(T) cc-pVTZ cc-pVTZ/C cc-pVTZ/JK RIJCOSX TightSCF
|  2> * xyz 0 4 
|  3> P  0.0  0.0  0.0
|  4> *
|  5> 
|  6>                          ****END OF INPUT****
================================================================================

                       ****************************
                       * Single Point Calculation *
                       ****************************

---------------------------------
CARTESIAN COORDINATES (ANGSTROEM)
---------------------------------
  P      0.000000    0.000000    0.000000

----------------------------
CARTESIAN COORDINATES (A.U.)
----------------------------
  NO LB      ZA    FRAG     MASS         X           Y           Z
   0 P    15.0000    0    30.974    0.000000    0.000000    0.000000

--------------------------------
INTERNAL COORDINATES (ANGSTROEM)
--------------------------------
 P      0   0   0     0.000000000000     0.00000000     0.00000000

---------------------------
INTERNAL COORDINATES (A.U.)
---------------------------
 P      0   0   0     0.000000000000     0.00000000     0.00000000

---------------------
BASIS SET INFORMATION
---------------------
There are 1 groups of distinct atoms

 Group   1 Type P   : 41s16p2d1f contracted to 5s4p2d1f pattern {13131311/7711/11/1}

Atom   0P    basis set group =>   1
-------------------------------
AUXILIARY BASIS SET INFORMATION
-------------------------------
There are 1 groups of distinct atoms

 Group   1 Type P   : 13s11p9d3f1g contracted to 13s11p9d3f1g pattern {1111111111111/11111111111/111111111/111/1}

Atom   0P    basis set group =>   1
------------------------------------------------------------------------------
                           ORCA GTO INTEGRAL CALCULATION
                           -- RI-GTO INTEGRALS CHOSEN --
------------------------------------------------------------------------------

                         BASIS SET STATISTICS AND STARTUP INFO

Gaussian basis set:
 # of primitive gaussian shells          ...   60
 # of primitive gaussian functions       ...  106
 # of contracted shells                  ...   12
 # of contracted basis functions         ...   34
 Highest angular momentum                ...    3
 Maximum contraction depth               ...   13
Auxiliary gaussian basis set:
 # of primitive gaussian shells          ...   37
 # of primitive gaussian functions       ...  121
 # of contracted shells                  ...   37
 # of contracted aux-basis functions     ...  121
 Highest angular momentum                ...    4
 Maximum contraction depth               ...    1
Ratio of auxiliary to basis functions    ...  3.56
Integral package used                  ... LIBINT
 One Electron integrals                  ... done
 Ordering auxiliary basis shells         ... done
 Integral threshhold             Thresh  ...  2.500e-11
 Primitive cut-off               TCut    ...  2.500e-12
 Pre-screening matrix                    ... done
 Shell pair data                         ... 
 Ordering of the shell pairs             ... done (   0.000 sec) 78 of 78 pairs
 Determination of significant pairs      ... done (   0.000 sec)
 Creation of shell pair data             ... done (   0.000 sec)
 Storage of shell pair data              ... done (   0.000 sec)
 Shell pair data done in (   0.000 sec)
 Computing two index integrals           ... done
 Cholesky decomposition of the V-matrix  ... done


Timings:
 Total evaluation time                   ...   0.173 sec (  0.003 min)
 One electron matrix time                ...   0.004 sec (  0.000 min) =  2.3%
 Schwartz matrix evaluation time         ...   0.152 sec (  0.003 min) = 88.2%
 Two index repulsion integral time       ...   0.000 sec (  0.000 min) =  0.2%
 Cholesky decomposition of V             ...   0.000 sec (  0.000 min) =  0.1%
 Three index repulsion integral time     ...   0.000 sec (  0.000 min) =  0.0%

-------------------------------------------------------------------------------
                                 ORCA SCF
-------------------------------------------------------------------------------

------------
SCF SETTINGS
------------
Hamiltonian:
 Ab initio Hamiltonian  Method          .... Hartree-Fock(GTOs)
 RI-approximation to the Coulomb term is turned on
   Number of auxiliary basis functions  .... 121
   RIJ-COSX (HFX calculated with COS-X)).... on


General Settings:
 Integral files         IntName         .... P
 Hartree-Fock type      HFTyp           .... UHF
 Total Charge           Charge          ....    0
 Multiplicity           Mult            ....    4
 Number of Electrons    NEL             ....   15
 Basis Dimension        Dim             ....   34
 Nuclear Repulsion      ENuc            ....      0.0000000000 Eh

Convergence Acceleration:
 DIIS                   CNVDIIS         .... on
   Start iteration      DIISMaxIt       ....    12
   Startup error        DIISStart       ....  0.200000
   # of expansion vecs  DIISMaxEq       ....     5
   Bias factor          DIISBfac        ....   1.050
   Max. coefficient     DIISMaxC        ....  10.000
 Newton-Raphson         CNVNR           .... off
 SOSCF                  CNVSOSCF        .... off
 Level Shifting         CNVShift        .... on
   Level shift para.    LevelShift      ....    0.2500
   Turn off err/grad.   ShiftErr        ....    0.0010
 Zerner damping         CNVZerner       .... off
 Static damping         CNVDamp         .... on
   Fraction old density DampFac         ....    0.7000
   Max. Damping (<1)    DampMax         ....    0.9800
   Min. Damping (>=0)   DampMin         ....    0.0000
   Turn off err/grad.   DampErr         ....    0.1000
 Fernandez-Rico         CNVRico         .... off

SCF Procedure:
 Maximum # iterations   MaxIter         ....   125
 SCF integral mode      SCFMode         .... Direct
   Integral package                     .... LIBINT
 Reset frequeny         DirectResetFreq ....    20
 Integral Threshold     Thresh          ....  2.500e-11 Eh
 Primitive CutOff       TCut            ....  2.500e-12 Eh

Convergence Tolerance:
 Convergence Check Mode ConvCheckMode   .... Total+1el-Energy
 Convergence forced     ConvForced      .... 1
 Energy Change          TolE            ....  1.000e-08 Eh
 1-El. energy change                    ....  1.000e-05 Eh
 DIIS Error             TolErr          ....  5.000e-07


Diagonalization of the overlap matrix:
Smallest eigenvalue                        ... 2.077e-02
Time for diagonalization                   ...    0.001 sec
Threshold for overlap eigenvalues          ... 1.000e-08
Number of eigenvalues below threshold      ... 0
Time for construction of square roots      ...    0.000 sec
Total time needed                          ...    0.001 sec

-------------------
DFT GRID GENERATION
-------------------

General Integration Accuracy     IntAcc      ...  4.340
Radial Grid Type                 RadialGrid  ... Gauss-Chebyshev
Angular Grid (max. acc.)         AngularGrid ... Lebedev-110
Angular grid pruning method      GridPruning ... 3 (G Style)
Weight generation scheme         WeightScheme... Becke
Basis function cutoff            BFCut       ...    1.0000e-11
Integration weight cutoff        WCut        ...    1.0000e-14
Grids for H and He will be reduced by one unit

# of grid points (after initial pruning)     ...   1806 (   0.0 sec)
# of grid points (after weights+screening)   ...   1806 (   0.0 sec)
Grid point division into batches done        ...    0.0 sec
Reduced shell lists constructed in    0.0 sec

Total number of grid points                  ...     1806
Total number of batches                      ...       29
Average number of points per batch           ...       62
Average number of grid points per atom       ...     1806
Average number of shells per batch           ...    11.60 (96.67%)
Average number of basis functions per batch  ...    32.87 (96.67%)
Average number of large shells per batch     ...    10.80 (93.10%)
Average number of large basis fcns per batch ...    31.13 (94.73%)
Maximum spatial batch extension              ...  17.83, 32.81, 32.81 au
Average spatial batch extension              ...   8.14,  9.55, 10.76 au

Time for grid setup =    0.015 sec

------------------------------
INITIAL GUESS: MODEL POTENTIAL
------------------------------
Loading Hartree-Fock densities                     ... done
Calculating cut-offs                               ... done
Setting up the integral package                    ... done
Initializing the effective Hamiltonian             ... done
Starting the Coulomb interaction                   ... done (   0.0 sec)
Reading the grid                                   ... done
Mapping shells                                     ... done
Starting the XC term evaluation                    ... done (   0.0 sec)
Transforming the Hamiltonian                       ... done (   0.0 sec)
Diagonalizing the Hamiltonian                      ... done (   0.0 sec)
Back transforming the eigenvectors                 ... done (   0.0 sec)
Now organizing SCF variables                       ... done
                      ------------------
                      INITIAL GUESS DONE (   0.1 sec)
                      ------------------
--------------------
COSX GRID GENERATION
--------------------

General Integration Accuracy     IntAcc      ...  3.340
Radial Grid Type                 RadialGrid  ... Gauss-Chebyshev
Angular Grid (max. acc.)         AngularGrid ... Lebedev-50
Angular grid pruning method      GridPruning ... 3 (G Style)
Weight generation scheme         WeightScheme... Becke
Basis function cutoff            BFCut       ...    1.0000e-11
Integration weight cutoff        WCut        ...    1.0000e-14
Grids for H and He will be reduced by one unit

# of grid points (after initial pruning)     ...    706 (   0.0 sec)
# of grid points (after weights+screening)   ...    706 (   0.0 sec)
Grid point division into batches done        ...    0.0 sec
Reduced shell lists constructed in    0.0 sec

Total number of grid points                  ...      706
Total number of batches                      ...       12
Average number of points per batch           ...       58
Average number of grid points per atom       ...      706
Average number of shells per batch           ...    11.08 (92.31%)
Average number of basis functions per batch  ...    31.38 (92.31%)
Average number of large shells per batch     ...    11.08 (100.00%)
Average number of large basis fcns per batch ...    31.38 (100.00%)
Maximum spatial batch extension              ...  22.63, 27.71, 27.71 au
Average spatial batch extension              ...   8.55, 12.28, 13.26 au

Overlap Fitting                  UseSFitting ... on
Constructing numerical overlap ... done (      0.0 sec)
Inverting numerical overlap    ... done (      0.0 sec)
Obtaining analytic overlap     ... done (      0.0 sec)
Final contraction and storage  ... done (      0.0 sec)


General Integration Accuracy     IntAcc      ...  3.670
Radial Grid Type                 RadialGrid  ... Gauss-Chebyshev
Angular Grid (max. acc.)         AngularGrid ... Lebedev-50
Angular grid pruning method      GridPruning ... 3 (G Style)
Weight generation scheme         WeightScheme... Becke
Basis function cutoff            BFCut       ...    1.0000e-11
Integration weight cutoff        WCut        ...    1.0000e-14
Grids for H and He will be reduced by one unit

# of grid points (after initial pruning)     ...    846 (   0.0 sec)
# of grid points (after weights+screening)   ...    846 (   0.0 sec)
Grid point division into batches done        ...    0.0 sec
Reduced shell lists constructed in    0.0 sec

Total number of grid points                  ...      846
Total number of batches                      ...       14
Average number of points per batch           ...       60
Average number of grid points per atom       ...      846
Average number of shells per batch           ...    11.20 (93.33%)
Average number of basis functions per batch  ...    31.73 (93.33%)
Average number of large shells per batch     ...    11.20 (100.00%)
Average number of large basis fcns per batch ...    31.73 (100.00%)
Maximum spatial batch extension              ...  24.23, 29.68, 29.68 au
Average spatial batch extension              ...   8.37, 11.52, 12.64 au

Overlap Fitting                  UseSFitting ... on
Constructing numerical overlap ... done (      0.0 sec)
Inverting numerical overlap    ... done (      0.0 sec)
Obtaining analytic overlap     ... done (      0.0 sec)
Final contraction and storage  ... done (      0.0 sec)


General Integration Accuracy     IntAcc      ...  4.010
Radial Grid Type                 RadialGrid  ... Gauss-Chebyshev
Angular Grid (max. acc.)         AngularGrid ... Lebedev-110
Angular grid pruning method      GridPruning ... 3 (G Style)
Weight generation scheme         WeightScheme... Becke
Basis function cutoff            BFCut       ...    1.0000e-11
Integration weight cutoff        WCut        ...    1.0000e-14
Grids for H and He will be reduced by one unit

# of grid points (after initial pruning)     ...   1632 (   0.0 sec)
# of grid points (after weights+screening)   ...   1632 (   0.0 sec)
Grid point division into batches done        ...    0.0 sec
Reduced shell lists constructed in    0.0 sec

Total number of grid points                  ...     1632
Total number of batches                      ...       26
Average number of points per batch           ...       62
Average number of grid points per atom       ...     1632
Average number of shells per batch           ...    11.56 (96.30%)
Average number of basis functions per batch  ...    32.74 (96.30%)
Average number of large shells per batch     ...    11.11 (96.15%)
Average number of large basis fcns per batch ...    31.85 (97.29%)
Maximum spatial batch extension              ...  16.97, 31.36, 31.36 au
Average spatial batch extension              ...   8.61, 10.11, 11.40 au

Overlap Fitting                  UseSFitting ... on
Constructing numerical overlap ... done (      0.0 sec)
Inverting numerical overlap    ... done (      0.0 sec)
Obtaining analytic overlap     ... done (      0.0 sec)
Final contraction and storage  ... done (      0.0 sec)

Time for X-Grid setup             =    0.127 sec
--------------
SCF ITERATIONS
--------------
ITER       Energy         Delta-E        Max-DP      RMS-DP      [F,P]     Damp
               ***  Starting incremental Fock matrix formation  ***
  0   -340.7032762321   0.000000000000 0.02442757  0.00107921  0.1111256 0.7000
  1   -340.7069570946  -0.003680862535 0.01771710  0.00085691  0.0792199 0.7000
                               ***Turning on DIIS***
  2   -340.7096248804  -0.002667785785 0.04159176  0.00215114  0.0559658 0.0000
  3   -340.7175508400  -0.007925959532 0.00757444  0.00041032  0.0064864 0.0000
  4   -340.7164805738   0.001070266104 0.00408440  0.00018643  0.0019177 0.0000
  5   -340.7142483717   0.002232202106 0.00344498  0.00013230  0.0006329 0.0000
               *** Restarting incremental Fock matrix formation ***
                                   *** Resetting DIIS ***
  6   -340.7163435303  -0.002095158521 0.00043319  0.00001388  0.0000870 0.0000
  7   -340.7162570271   0.000086503148 0.00029217  0.00000952  0.0000371 0.0000
  8   -340.7163068333  -0.000049806176 0.00006275  0.00000211  0.0000071 0.0000
                            ***DIIS convergence achieved***

               *****************************************************
               *                     SUCCESS                       *
               *           SCF CONVERGED AFTER   9 CYCLES          *
               *****************************************************

Old exchange energy                            =    -22.642872638 Eh
New exchange energy                            =    -22.642746139 Eh
Exchange energy change after final integration =      0.000126499 Eh
Total energy after final integration           =   -340.716214351 Eh
Final COS-X integration done in                =     0.182 sec

----------------
TOTAL SCF ENERGY
----------------

Total Energy       :         -340.71621435 Eh           -9271.35954 eV

Components:
Nuclear Repulsion  :            0.00000000 Eh               0.00000 eV
Electronic Energy  :         -340.71621435 Eh           -9271.35954 eV
One Electron Energy:         -471.51379634 Eh          -12830.54269 eV
Two Electron Energy:          130.79758198 Eh            3559.18315 eV

Virial components:
Potential Energy   :         -681.43275369 Eh          -18542.72792 eV
Kinetic Energy     :          340.71653934 Eh            9271.36838 eV
Virial Ratio       :            1.99999905


---------------
SCF CONVERGENCE
---------------

  Last Energy change         ...   -3.4017e-05  Tolerance :   1.0000e-08
  Last MAX-Density change    ...    0.0000e+00  Tolerance :   1.0000e-07
  Last RMS-Density change    ...    0.0000e+00  Tolerance :   5.0000e-09
  Last DIIS Error            ...    5.0251e-07  Tolerance :   5.0000e-07

             **** THE GBW FILE WAS UPDATED (P.gbw) ****
             **** DENSITY FILE WAS UPDATED (P.scfp.tmp) ****
             **** ENERGY FILE WAS UPDATED (P.en.tmp) ****
----------------------
UHF SPIN CONTAMINATION
----------------------

Expectation value of <S**2>     :     3.750308
Ideal value S*(S+1) for S=1.5   :     3.750000
Deviation                       :     0.000308

----------------
ORBITAL ENERGIES
----------------
                 SPIN UP ORBITALS
  NO   OCC          E(Eh)            E(eV) 
   0   1.0000     -79.978458     -2176.3245 
   1   1.0000      -7.520769      -204.6505 
   2   1.0000      -5.419521      -147.4727 
   3   1.0000      -5.419521      -147.4727 
   4   1.0000      -5.419521      -147.4727 
   5   1.0000      -0.835378       -22.7318 
   6   1.0000      -0.391362       -10.6495 
   7   1.0000      -0.391362       -10.6495 
   8   1.0000      -0.391362       -10.6495 
   9   0.0000       0.370201        10.0737 
  10   0.0000       0.386663        10.5216 
  11   0.0000       0.386663        10.5216 
  12   0.0000       0.386663        10.5216 
  13   0.0000       0.562923        15.3179 
  14   0.0000       0.562923        15.3179 
  15   0.0000       0.562923        15.3179 
  16   0.0000       0.562923        15.3179 
  17   0.0000       0.562923        15.3179 
  18   0.0000       1.546226        42.0750 
  19   0.0000       1.546226        42.0750 
  20   0.0000       1.546226        42.0750 
  21   0.0000       1.546226        42.0750 
  22   0.0000       1.546226        42.0750 
  23   0.0000       1.546226        42.0750 
  24   0.0000       1.546226        42.0750 
  25   0.0000       1.633303        44.4444 
  26   0.0000       1.633303        44.4444 
  27   0.0000       1.633303        44.4444 
  28   0.0000       1.633303        44.4444 
  29   0.0000       1.633303        44.4444 
  30   0.0000       2.188707        59.5577 
  31   0.0000       2.188707        59.5577 
  32   0.0000       2.188707        59.5577 
  33   0.0000       2.921675        79.5028 

                 SPIN DOWN ORBITALS
  NO   OCC          E(Eh)            E(eV) 
   0   1.0000     -79.958586     -2175.7837 
   1   1.0000      -7.498888      -204.0551 
   2   1.0000      -5.379442      -146.3821 
   3   1.0000      -5.379442      -146.3821 
   4   1.0000      -5.379442      -146.3821 
   5   1.0000      -0.555839       -15.1252 
   6   0.0000       0.054423         1.4809 
   7   0.0000       0.054423         1.4809 
   8   0.0000       0.054423         1.4809 
   9   0.0000       0.430461        11.7135 
  10   0.0000       0.474926        12.9234 
  11   0.0000       0.474926        12.9234 
  12   0.0000       0.474926        12.9234 
  13   0.0000       0.562923        15.3179 
  14   0.0000       0.562923        15.3179 
  15   0.0000       0.562923        15.3179 
  16   0.0000       0.562923        15.3179 
  17   0.0000       0.562923        15.3179 
  18   0.0000       1.628748        44.3205 
  19   0.0000       1.628748        44.3205 
  20   0.0000       1.628748        44.3205 
  21   0.0000       1.628748        44.3205 
  22   0.0000       1.628748        44.3205 
  23   0.0000       1.628748        44.3205 
  24   0.0000       1.628748        44.3205 
  25   0.0000       1.633302        44.4444 
  26   0.0000       1.633302        44.4444 
  27   0.0000       1.633302        44.4444 
  28   0.0000       1.633303        44.4444 
  29   0.0000       1.633303        44.4444 
  30   0.0000       2.256073        61.3909 
  31   0.0000       2.256073        61.3909 
  32   0.0000       2.256073        61.3909 
  33   0.0000       2.968988        80.7903 

                    ********************************
                    * MULLIKEN POPULATION ANALYSIS *
                    ********************************

--------------------------------------------
MULLIKEN ATOMIC CHARGES AND SPIN POPULATIONS
--------------------------------------------
   0 P :   -0.000000    3.000000
Sum of atomic charges         :   -0.0000000
Sum of atomic spin populations:    3.0000000

-----------------------------------------------------
MULLIKEN REDUCED ORBITAL CHARGES AND SPIN POPULATIONS
-----------------------------------------------------
CHARGE
  0 P s       :     6.000000  s :     6.000000
      pz      :     3.000000  p :     9.000000
      px      :     3.000000
      py      :     3.000000
      dz2     :     0.000000  d :     0.000000
      dxz     :     0.000000
      dyz     :     0.000000
      dx2y2   :     0.000000
      dxy     :     0.000000
      f0      :     0.000000  f :     0.000000
      f+1     :     0.000000
      f-1     :     0.000000
      f+2     :     0.000000
      f-2     :     0.000000
      f+3     :     0.000000
      f-3     :     0.000000

SPIN
  0 P s       :     0.000000  s :     0.000000
      pz      :     1.000000  p :     3.000000
      px      :     1.000000
      py      :     1.000000
      dz2     :     0.000000  d :     0.000000
      dxz     :     0.000000
      dyz     :     0.000000
      dx2y2   :    -0.000000
      dxy     :     0.000000
      f0      :     0.000000  f :     0.000000
      f+1     :     0.000000
      f-1     :     0.000000
      f+2     :    -0.000000
      f-2     :     0.000000
      f+3     :     0.000000
      f-3     :     0.000000


                     *******************************
                     * LOEWDIN POPULATION ANALYSIS *
                     *******************************

-------------------------------------------
LOEWDIN ATOMIC CHARGES AND SPIN POPULATIONS
-------------------------------------------
   0 P :    0.000000    3.000000

----------------------------------------------------
LOEWDIN REDUCED ORBITAL CHARGES AND SPIN POPULATIONS
----------------------------------------------------
CHARGE
  0 P s       :     6.000000  s :     6.000000
      pz      :     3.000000  p :     9.000000
      px      :     3.000000
      py      :     3.000000
      dz2     :     0.000000  d :     0.000000
      dxz     :     0.000000
      dyz     :     0.000000
      dx2y2   :     0.000000
      dxy     :     0.000000
      f0      :     0.000000  f :     0.000000
      f+1     :     0.000000
      f-1     :     0.000000
      f+2     :     0.000000
      f-2     :     0.000000
      f+3     :     0.000000
      f-3     :     0.000000

SPIN
  0 P s       :     0.000000  s :     0.000000
      pz      :     1.000000  p :     3.000000
      px      :     1.000000
      py      :     1.000000
      dz2     :     0.000000  d :     0.000000
      dxz     :     0.000000
      dyz     :     0.000000
      dx2y2   :    -0.000000
      dxy     :     0.000000
      f0      :     0.000000  f :     0.000000
      f+1     :     0.000000
      f-1     :     0.000000
      f+2     :    -0.000000
      f-2     :     0.000000
      f+3     :     0.000000
      f-3     :     0.000000


                      *****************************
                      * MAYER POPULATION ANALYSIS *
                      *****************************

  NA   - Mulliken gross atomic population
  ZA   - Total nuclear charge
  QA   - Mulliken gross atomic charge
  VA   - Mayer's total valence
  BVA  - Mayer's bonded valence
  FA   - Mayer's free valence

  ATOM       NA         ZA         QA         VA         BVA        FA
  0 P     15.0000    15.0000    -0.0000     3.0006     0.0000     3.0006

  Mayer bond orders larger than 0.1



                ***UHF Natural Orbitals were saved in P.unso***


                ***UHF Natural Orbitals were saved in P.uno***

QR-MO GENERATION
 Dim     =   34
 Mult    =    4
 NEl     =   15
 N(DOMO) =    6
 N(SOMO) =    3
 N(VMO)  =   25


                ***Quasi-Restricted Orbitals were saved in P.qro***

Orbital Energies of Quasi-Restricted MO's
   0( 2) :   -79.958586 a.u. -2175.784 eV
   1( 2) :    -7.498886 a.u.  -204.055 eV
   2( 2) :    -5.379428 a.u.  -146.382 eV
   3( 2) :    -5.379428 a.u.  -146.382 eV
   4( 2) :    -5.379428 a.u.  -146.382 eV
   5( 2) :    -0.555701 a.u.   -15.121 eV
   6( 1) :    -0.156068 a.u.    -4.247 eV alpha=  -10.650 beta=    2.156
   7( 1) :    -0.156068 a.u.    -4.247 eV alpha=  -10.650 beta=    2.156
   8( 1) :    -0.156068 a.u.    -4.247 eV alpha=  -10.650 beta=    2.156
   9( 0) :     0.370149 a.u.    10.072 eV
  10( 0) :     0.386663 a.u.    10.522 eV
  11( 0) :     0.386663 a.u.    10.522 eV
  12( 0) :     0.386663 a.u.    10.522 eV
  13( 0) :     0.562923 a.u.    15.318 eV
  14( 0) :     0.562923 a.u.    15.318 eV
  15( 0) :     0.562923 a.u.    15.318 eV
  16( 0) :     0.562923 a.u.    15.318 eV
  17( 0) :     0.562923 a.u.    15.318 eV
  18( 0) :     1.546226 a.u.    42.075 eV
  19( 0) :     1.546226 a.u.    42.075 eV
  20( 0) :     1.546226 a.u.    42.075 eV
  21( 0) :     1.546226 a.u.    42.075 eV
  22( 0) :     1.546226 a.u.    42.075 eV
  23( 0) :     1.546226 a.u.    42.075 eV
  24( 0) :     1.546226 a.u.    42.075 eV
  25( 0) :     1.633302 a.u.    44.444 eV
  26( 0) :     1.633302 a.u.    44.444 eV
  27( 0) :     1.633302 a.u.    44.444 eV
  28( 0) :     1.633302 a.u.    44.444 eV
  29( 0) :     1.633302 a.u.    44.444 eV
  30( 0) :     2.188693 a.u.    59.557 eV
  31( 0) :     2.188693 a.u.    59.557 eV
  32( 0) :     2.188693 a.u.    59.557 eV
  33( 0) :     2.921568 a.u.    79.500 eV
-------
TIMINGS
-------

Total SCF time: 0 days 0 hours 0 min 2 sec 

Total time                  ....       2.371 sec
Sum of individual times     ....       2.367 sec  ( 99.8%)

Fock matrix formation       ....       2.106 sec  ( 88.8%)
  Split-RI-J                ....       0.883 sec  ( 41.9% of F)
  Chain of spheres X        ....       1.219 sec  ( 57.9% of F)
  COS-X 1 center corr.      ....       0.000 sec  (  0.0% of F)
Diagonalization             ....       0.010 sec  (  0.4%)
Density matrix formation    ....       0.000 sec  (  0.0%)
Population analysis         ....       0.002 sec  (  0.1%)
Initial guess               ....       0.105 sec  (  4.4%)
Orbital Transformation      ....       0.000 sec  (  0.0%)
Orbital Orthonormalization  ....       0.000 sec  (  0.0%)
DIIS solution               ....       0.001 sec  (  0.0%)

   <<< Auxbasis replaced with P.AUXC.tmp (Dim=122) >>> 



------------------------------------------------------------------------------- 
                              ORCA-MATRIX DRIVEN CI                            
------------------------------------------------------------------------------- 


Wavefunction type
-----------------
Correlation treatment                      ...      CCSD     
Single excitations                         ... ON
Orbital optimization                       ... OFF
Calculation of Z vector                    ... OFF
Calculation of Brueckner orbitals          ... OFF
Perturbative triple excitations            ... ON
Calculation of F12 correction              ... OFF
Frozen core treatment                      ... chemical core (10 el)
Reference Wavefunction                     ... UHF
  Alpha-MOs occ    :     5 ...    8 (  4 MO's/  4 electrons)
  Beta-MOs occ     :     5 ...    5 (  1 MO's/  1 electrons)
  Alpha-MOs virt   :     9 ...   33 ( 25 MO's              )
  Beta-MOs virt    :     6 ...   33 ( 28 MO's              )
  Quasi restricted orbitals will be used (this is similar to a ROHF determinant)
Number of AO's                             ...     34
Number of electrons                        ...     15
Number of correlated electrons             ...      5

Algorithmic settings
--------------------
Integral transformation                    ... All integrals via the RI transformation
RHF integral transformation will be used
K(C) Formation                             ... RI-DLPNO
   PNO-Integral Storage                    ... ON DISK
   PNO occupation number cut-off           ... 3.330e-07
   Singles PNO occupation number cut-off   ... 9.990e-09
   PNO Mulliken prescreening cut-off       ... 1.000e-03
   Domain cut-off (Mulliken population)    ... 1.000e-03
   PNO Normalization                       ...    1
Maximum number of iterations               ...        50
Convergence tolerance (max. residuum)      ... 1.000e-05
Level shift for amplitude update           ... 2.000e-01
Maximum number of DIIS vectors             ...         7
DIIS turned on at iteration                ...         0
Damping before turning on DIIS             ...     0.500
Damping after turning on DIIS              ...     0.000
Pair specific amplitude update             ... OFF
Natural orbital iterations                 ... OFF
Perturbative natural orbital generation    ... OFF
Printlevel                                 ... 2

Singles Fock matrix elements calculated using PNOs.

Memory handling:
----------------
Maximum memory for working arrays          ...    512 MB
Data storage in matrix containers          ... UNCOMPRESSED
Data type for integral storage             ... DOUBLE
In-Core Storage of quantities:
   Amplitudes+Sigma Vector      ... NO
   J+K operators                ... NO
   DIIS vectors                 ... NO
   3-external integrals         ... NO
   4-external integrals         ... NO

Localization treatment:
-----------------------
Localization option                        ...    2
Using relative localization threshhold     ... 1.0e-08
Neglect threshold for strong pairs         ... 1.000e-04 Eh
Prescreening threshold for very weak pairs ... 1.000e-06 Eh
Using randomized seed for localization     ... on

Initializing the integral package          ... done
Localizing the QROs
------------------------------------------------------------------------------
                           ORCA ORBITAL LOCALIZATION
------------------------------------------------------------------------------

Input orbitals are from                  ... P.proc0.qro
Output orbitals are to                   ... P.proc0.loc
Max. number of iterations                ... 128
Localizations seeded randomly            ... on
Convergence tolerance                    ... 1.000e-06
Using relative localization threshhold   ... 1.000e-08
Treshold for strong local MOs            ... 9.500e-01
Treshold for bond MOs                    ... 8.500e-01
Operator                                 ... 0
Orbital range for localization           ... 5 to 5
Localization criterion                   ... FOSTER-BOYS
Doing the dipole integrals     ... o.k.
Entering Jacobi type localization:
Using Cholesky decomposition as initial guess.
Initial value of the localization sum :     0.000000
ITERATION   0 : L=    0.0000000000 DL=  0.00e+00 (MAX-T)=   0.000 
ITERATION   1 : L=    0.0000000000 DL=  0.00e+00 (MAX-T)=   0.000 
ITERATION   2 : L=    0.0000000000 DL=  0.00e+00 (MAX-T)=   0.000 
LOCALIZATION SUM CONVERGED


------------------------------------------------------------------------------- 
                    LOCALIZED MOLECULAR ORBITAL COMPOSITIONS                   
------------------------------------------------------------------------------- 

The Mulliken populations for each LMO on each atom are computed
The LMO`s will be ordered according to atom index and type
  (A) Strongly localized MO`s have populations of >=0.950 on one atom
  (B) Two center bond orbitals have populations of >=0.850 on two atoms
  (C) Other MO`s are considered to be `delocalized`

FOUND  -   1 strongly local MO`s
       -   0 two center bond MO`s
       -   0 significantly delocalized MO`s

Rather strongly localized orbitals:
MO   5:   0P  -   1.000000
Localized MO's were stored in: P.proc0.loc

------------------------------------------------------------------------------
                           ORCA ORBITAL LOCALIZATION
------------------------------------------------------------------------------

Input orbitals are from                  ... P.proc0.loc
Output orbitals are to                   ... P.proc0.loc
Max. number of iterations                ... 128
Localizations seeded randomly            ... on
Convergence tolerance                    ... 1.000e-06
Using relative localization threshhold   ... 1.000e-08
Treshold for strong local MOs            ... 9.500e-01
Treshold for bond MOs                    ... 8.500e-01
Operator                                 ... 0
Orbital range for localization           ... 6 to 8
Localization criterion                   ... FOSTER-BOYS
Doing the dipole integrals     ... o.k.
Entering Jacobi type localization:
Using Cholesky decomposition as initial guess.
Initial value of the localization sum :     0.000000
ITERATION   0 : L=    0.0000000000 DL=  0.00e+00 (MAX-T)=   0.000 
ITERATION   1 : L=    0.0000000000 DL=  0.00e+00 (MAX-T)=   0.000 
ITERATION   2 : L=    0.0000000000 DL=  0.00e+00 (MAX-T)=   0.000 
LOCALIZATION SUM CONVERGED


------------------------------------------------------------------------------- 
                    LOCALIZED MOLECULAR ORBITAL COMPOSITIONS                   
------------------------------------------------------------------------------- 

The Mulliken populations for each LMO on each atom are computed
The LMO`s will be ordered according to atom index and type
  (A) Strongly localized MO`s have populations of >=0.950 on one atom
  (B) Two center bond orbitals have populations of >=0.850 on two atoms
  (C) Other MO`s are considered to be `delocalized`

FOUND  -   3 strongly local MO`s
       -   0 two center bond MO`s
       -   0 significantly delocalized MO`s

Rather strongly localized orbitals:
MO   8:   0P  -   1.000000
MO   7:   0P  -   1.000000
MO   6:   0P  -   1.000000
Localized MO's were stored in: P.proc0.loc

Localizing the core orbitals
Localization sum:     0.245425357 
------------------------------------------------------------------------------
                           ORCA ORBITAL LOCALIZATION
------------------------------------------------------------------------------

Input orbitals are from                  ... P.proc0.loc
Output orbitals are to                   ... P.proc0.loc
Max. number of iterations                ... 128
Localizations seeded randomly            ... on
Convergence tolerance                    ... 1.000e-06
Using relative localization threshhold   ... 1.000e-08
Treshold for strong local MOs            ... 9.500e-01
Treshold for bond MOs                    ... 8.500e-01
Operator                                 ... 0
Orbital range for localization           ... 0 to 4
Localization criterion                   ... FOSTER-BOYS
Doing the dipole integrals     ... o.k.
Entering Jacobi type localization:
Using Cholesky decomposition as initial guess.
Initial value of the localization sum :     0.000000
ITERATION   0 : L=    0.2378633196 DL=  2.38e-01 (MAX-T)=  45.000 
ITERATION   1 : L=    0.2453886396 DL=  7.53e-03 (MAX-T)=  10.084 
ITERATION   2 : L=    0.2454253276 DL=  3.67e-05 (MAX-T)=   0.758 
ITERATION   3 : L=    0.2454253568 DL=  2.91e-08 (MAX-T)=   0.018 
LOCALIZATION SUM CONVERGED


------------------------------------------------------------------------------- 
                    LOCALIZED MOLECULAR ORBITAL COMPOSITIONS                   
------------------------------------------------------------------------------- 

The Mulliken populations for each LMO on each atom are computed
The LMO`s will be ordered according to atom index and type
  (A) Strongly localized MO`s have populations of >=0.950 on one atom
  (B) Two center bond orbitals have populations of >=0.850 on two atoms
  (C) Other MO`s are considered to be `delocalized`

FOUND  -   5 strongly local MO`s
       -   0 two center bond MO`s
       -   0 significantly delocalized MO`s

Rather strongly localized orbitals:
MO   4:   0P  -   1.000000
MO   3:   0P  -   1.000000
MO   2:   0P  -   1.000000
MO   1:   0P  -   1.000000
MO   0:   0P  -   1.000000
Localized MO's were stored in: P.proc0.loc

Re-Reading QRO orbitals for the actual calculation
  ... duplicating orbitals and energies 
  ... adjusting occupation numbers
Warning: internal orbitals are localized - no re-canonicalization of internal orbitals

--------------
DLPNO SETTINGS
--------------

TCutMKN:           1.000e-03
TCutPAO:           1.000e-03
TCutPNO:           3.330e-07
TCutPNOSingles:    9.990e-09
TCutPAOExt:        1.000e-01
TCutPairs:         1.000e-04
TCutPre:           1.000e-06
TCutDOij:          1.000e-05
PAO overlap thresh 1.000e-08
Number of singly-occupied orbitals: 3
TCutTNO:           1.000e-09
TCutMP2Pairs:      1.000e-05
TCutDOStrong:      2.000e-03
TCutMKNStrong:     1.000e-02
TCutMKNWeak:       1.000e-01
TCutDOWeak:        4.000e-03
NTCutTNO:          1
Using PNOs for Singles Fock computation
--------------------------
Reading one-electron matrix from P.H.tmp ...done
Entering RIJCOSX section for the open-shell Fock matrices
Retrieving the Coulomb fitting basis              ... done
Calculating the full J-matrix                     ... done
Calculating all K-matrices                        ... done
RIJCOSX finished
Reference energy                           ...   -340.715891121
Calculating differential overlap integrals (occ,PAO) ... ok
 >> Construction of the PNO with the Koopmans (K)-matrix << 
Entering the RI transformation section

-----------------
RI-TRANSFORMATION (AUX index driven)
-----------------

Dimension of the orbital-basis         ... 34
Dimension of the aux-basis             ... 122
Transformation of internal MOs         ...    6-   8
Number Format for Storage              ... Double (8 Byte)
Integral mode                          ... Direct

First Phase: integral generation and transformation of MO indices
  Aux angular momentum 0               ... done (    0.003 sec)
  Aux angular momentum 1               ... done (    0.004 sec)
  Aux angular momentum 2               ... done (    0.004 sec)
  Aux angular momentum 3               ... done (    0.003 sec)
  Aux angular momentum 4               ... done (    0.001 sec)
Closing buffer VIJ ( 0.00 GB; CompressionRatio= 0.80)
  Phase 1 completed in     0.080 sec
Second Phase: sorting and transformation of aux index

IJ-Transformation
Memory available                       ... 512 MB 
Max. # MO pairs treated in a batch     ... 3    
# of internal orbitals                 ... 3
# batches for internal orbitals        ... 1
Closing buffer IJV ( 0.00 GB; CompressionRatio= 0.99)
(ij|v) transformation done in     0.000 sec

  Phase 2 completed in     0.000 sec
RI-Integral transformation completed in     0.081 sec

-----------------------
RI-FORMATION OF (ij|kl)
-----------------------

Max core memory to be used            ... 512 MB
Memory needed per MO pair             ...   0.0 MB
# of MO pairs included in trafo       ... 6
# of MO pairs treated in a batch      ... 6
# of batches needed                   ... 1
Data format used                      ... DOUBLE
 done (    0.000 sec)
Closing buffer JIJ ( 0.00 GB; CompressionRatio= 0.80)
(ij|kl) transformation completed in     0.000 sec
     ... leaving the RI transformation section
 >> 4-active ERIs are generated & stored in-core fast memory 
 >> End construction..
F12 correction will NOT be calculated
 >>>>>>>>>>>>>>>>>>>>>>>>>>>>>>>>>>>>> 
       Dipole-based Prescreening       
 <<<<<<<<<<<<<<<<<<<<<<<<<<<<<<<<<<<<< 
Threshold for domain construction in prescreening:
   TCutDO    ...     1.0e-02
--------------------------
ELECTRON PAIR PRESCREENING
--------------------------

PAO based multipole pair screening          .... used
   TCutDOij = 1.000000e-05
   TCutPre  = 1.000000e-06
 done

sum of pair energies estimated for screened out pairs ...       0.000000000000 Eh
                                                           
  __   __        __   ___     __        ___  __   __       
 /  ` |__) |  | |  \ |__     / _` |  | |__  /__` /__`     
 \__, |  \ \__/ |__/ |___    \__> \__/ |___ .__/ .__/ 
                                                           

Parameters for the crude guess:
   TScaleDOMP2PreScr   : 2.000e+00
   TScaleMKNMP2PreScr  : 1.000e+01
   TScalePNOMP2PreScr  : 1.000e+00
   TScalePairsMP2PreScr: 1.000e+00
   PAO overlap thresh    1.000e-08
Thresholds for map construction and integral transformation for crude MP2:
   TCutMKN                    ...     1.0e-02
   TCutDO                     ...     2.0e-02
   TCutPairs                  ...     1.0e-04
   TCutPairs_CrudeMP2         ...     1.0e-04
   TCutPNO_CrudeMP2           ...     3.3e-07
   TCutPNOSingles_CrudeMP2    ...     1.0e-08

------------------------------
LOCAL RI (xy|k) TRANSFORMATION
------------------------------

Dimension of OBS basis                 ... 34
Dimension of (OBS)PAOs                 ... 34
Dimension of the aux-basis             ... 122
Integral mode                          ... Direct

First Phase: integral generation and first transformation of MO indices
 number of shell sets computed                       =               2496
 number of shell sets in domains (without screening) =               2496
 number of shell sets without domains or screening   =               2496
Closing buffer P.kxy_op0.tmp.proc0 ( 0.00 GB; CompressionRatio= 0.99)
Local 3-center integral transformation (op=0) completed in     0.033 sec

-----------------------------------------
   _  _______   __    ___  _  ______     
  / |/ / __/ | / /___/ _ \/ |/ / __ \  
 /    / _/ | |/ /___/ ___/    / /_/ /    
/_/|_/___/ |___/   /_/  /_/|_/\____/    
                                         
                for open-shell molecules 
-----------------------------------------


 ==> UMP guess in NEV-PNO space 

Truncation parameters                       .... 
    PAOOverlapThresh     =        1.000e-08
    TCutPairs            =        1.000e-04
    TCutMKN              =        1.000e-02
    TCutDO               =        1.000e-02
    TCutCMO              =        1.000e-03
    TCutCPAO             =        1.000e-03
    TCutPNO              =        3.330e-07
    TScaleTCutPNO_SS     =        1.000e+00
    TScaleTCutPNO_SD     =        1.000e+00
    TCutDO_Crude         =        2.000e-02
    TCutMKN_Crude        =        1.000e-02
    TCutPairs_Crude      =        1.000e-04
    TCutPNO_Crude        =        3.330e-07
Spin component scaling in ijab excitation            .... not used

Formation of guess energy and open-shell PNO.

NEV-PNO operators..
  E(ij->ab)
  E(ip->ab)
  E(pq->ab)
  E(ij->pq)
  E(pq->ra)
  E(ip->qr)
  E(ip->aq) and E(ip->qa)

 Norm of Semi-Internal Fock Operators ...   0.0000022725
  ==> Semi-internal excitations detected 

   .... Finished loop over pairs

 # of CC pairs      ... [13/13] 
 # of PT pairs      ... [0/13] 
 # of skipped pairs ... [0/13] 

 Initial PAO correlation energy (all pairs)    ...  -0.0789875036 Eh
 Energy constituents in PAO basis (Eh):
  | Vijab(+0) ...  -0.0080226723
  | Viab (-1) ...  -0.0205661975
  | Vab  (-2) ...  -0.0136319411
  | Va   (-1) ...  -0.0000010804
  | Vija (+1) ...  -0.0021884969
  | Via  (+0) ...  -0.0345771154
 Initial PNO correlation energy                ...  -0.0782197044 Eh
 Energy constituents in PNO basis (Eh):
  | Vijab(+0) ...  -0.0080226723 (err= -0.0000000000)
  | Viab (-1) ...  -0.0197983983 (err=  0.0007677992)
  | Vab  (-2) ...  -0.0136319411 (err=  0.0000000000)
  | Va   (-1) ...  -0.0000010804 (err=  0.0000000000)
  | Vija (+1) ...  -0.0021884969 (err=  0.0000000000)
  | Via  (+0) ...  -0.0345771154 (err=  0.0000000000)
 Sum of total truncation errors ...   0.0007677992 Eh
  | Pair screening ...   0.0000000000 Eh
  | PNO truncation ...   0.0007677992 Eh

 UMP2 correlation energy (PAO) ...  -0.0764838959
  | alpha-alpha ...  -0.0197708897 (NP_aa=    6)
  | alpha-beta  ...  -0.0567130062 (NP_ab=    4)
  | beta -beta  ...   0.0000000000 (NP_bb=    0)
 UMP2 correlation energy (PNO) ...  -0.0757278697
  | alpha-alpha ...  -0.0192797523 (err=  0.0004911374, NP_aa=    6)
  | alpha-beta  ...  -0.0564481174 (err=  0.0002648889, NP_ab=    4)
  | beta -beta  ...   0.0000000000 (err=  0.0000000000, NP_bb=    0)
 Sum of total UMP2 truncation errors ...   0.0007560263 Eh
  | Pair screening ...   0.0000000000 Eh
  | PNO truncation ...   0.0007560263 Eh
 Timing for NEV-PNO construction (sec.)
  | Intermediate construction  ..            0.002
  | Amplitude construction     ..            0.001
  | Total time                 ..            0.003
 Making pair pair interaction lists ...      ok
                                                 
  ___         ___     __        ___  __   __     
 |__  | |\ | |__     / _` |  | |__  /__` /__`   
 |    | | \| |___    \__> \__/ |___ .__/ .__/ 
                                                 

Thresholds for map construction and integral transformation:
   TCutMKN   ...     1.0e-03
   TCutDO    ...     1.0e-02
   TCutCMO   ...     1.0e-03
   TCutCPAO  ...     1.0e-03

Thresholds for map construction and integral transformation for strong Triples:
   TCutMKN   ...     1.0e-02
   TCutDO    ...     2.0e-02
   TCutCMO   ...     1.0e-03
   TCutCPAO  ...     1.0e-03

Thresholds for map construction and integral transformation for weak Triples:
   TCutMKN   ...     1.0e-01
   TCutDO    ...     4.0e-02
   TCutCMO   ...     1.0e-03
   TCutCPAO  ...     1.0e-03


------------------------------
LOCAL RI (xy|k) TRANSFORMATION
------------------------------

Dimension of OBS basis                 ... 34
Dimension of (OBS)PAOs                 ... 34
Dimension of the aux-basis             ... 122
Integral mode                          ... Direct

First Phase: integral generation and first transformation of MO indices
 number of shell sets computed                       =               2496
 number of shell sets in domains (without screening) =               2496
 number of shell sets without domains or screening   =               2496
Closing buffer P.kxy_op0.tmp.proc0 ( 0.00 GB; CompressionRatio= 0.99)
Local 3-center integral transformation (op=0) completed in     0.033 sec

 ==> UMP guess in NEV-PNO space 

Truncation parameters                       .... 
    PAOOverlapThresh     =        1.000e-08
    TCutPairs            =        1.000e-04
    TCutMKN              =        1.000e-03
    TCutDO               =        1.000e-02
    TCutCMO              =        1.000e-03
    TCutCPAO             =        1.000e-03
    TCutPNO              =        3.330e-07
    TScaleTCutPNO_SS     =        1.000e+00
    TScaleTCutPNO_SD     =        1.000e+00
    TScaleTCutPairs_Somo =        3.300e-01
    TCutPairs_MP2        =        1.000e-05
Spin component scaling in ijab excitation            .... not used

Formation of guess energy and open-shell PNO.

NEV-PNO operators..
  E(ij->ab)
  E(ip->ab)
  E(pq->ab)
  E(ij->pq)
  E(pq->ra)
  E(ip->qr)
  E(ip->aq) and E(ip->qa)

   .... Finished loop over pairs

 # of surviving pairs is 13 out of 13 pairs 

 Initial PAO correlation energy (all pairs)    ...  -0.0789875036 Eh
 Energy constituents in PAO basis (Eh):
  | Vijab(+0) ...  -0.0080226723
  | Viab (-1) ...  -0.0205661975
  | Vab  (-2) ...  -0.0136319411
  | Va   (-1) ...  -0.0000010804
  | Vija (+1) ...  -0.0021884969
  | Via  (+0) ...  -0.0345771154
 Initial PNO correlation energy                ...  -0.0782197044 Eh
 Energy constituents in PNO basis (Eh):
  | Vijab(+0) ...  -0.0080226723 (err= -0.0000000000)
  | Viab (-1) ...  -0.0197983983 (err=  0.0007677992)
  | Vab  (-2) ...  -0.0136319411 (err=  0.0000000000)
  | Va   (-1) ...  -0.0000010804 (err=  0.0000000000)
  | Vija (+1) ...  -0.0021884969 (err=  0.0000000000)
  | Via  (+0) ...  -0.0345771154 (err=  0.0000000000)
 Sum of total truncation errors ...   0.0007677992 Eh
  | Pair screening ...   0.0000000000 Eh
  | PNO truncation ...   0.0007677992 Eh

 UMP2 correlation energy (PAO) ...  -0.0764838959
  | alpha-alpha ...  -0.0197708897 (NP_aa=    6)
  | alpha-beta  ...  -0.0567130062 (NP_ab=    4)
  | beta -beta  ...   0.0000000000 (NP_bb=    0)
 UMP2 correlation energy (PNO) ...  -0.0757278697
  | alpha-alpha ...  -0.0192797523 (err=  0.0004911374, NP_aa=    6)
  | alpha-beta  ...  -0.0564481174 (err=  0.0002648889, NP_ab=    4)
  | beta -beta  ...   0.0000000000 (err=  0.0000000000, NP_bb=    0)
 Sum of total UMP2 truncation errors ...   0.0007560263 Eh
  | Pair screening ...   0.0000000000 Eh
  | PNO truncation ...   0.0007560263 Eh
 Timing for NEV-PNO construction (sec.)
  | Intermediate construction  ..            0.002
  | Amplitude construction     ..            0.001
  | Total time                 ..            0.003
 Making pair pair interaction lists ...      ok
 Total size for 2-ext PNO integrals ...      0.1 MB
Checking the number of SOMO/SOMO doubles PNOs ...  No PNOs should be truncated!


------------------------------
LOCAL RI (xy|k) TRANSFORMATION
------------------------------

Dimension of OBS basis                 ... 34
Dimension of (OBS)PAOs                 ... 34
Dimension of the aux-basis             ... 122
Integral mode                          ... Direct

First Phase: integral generation and first transformation of MO indices
 number of shell sets computed                       =               2496
 number of shell sets in domains (without screening) =               2496
 number of shell sets without domains or screening   =               2496
Closing buffer P.VABPAO.tmp.proc0 ( 0.00 GB; CompressionRatio= 1.00)
Local 3-center integral transformation (op=0) completed in     0.034 sec

------------------------------
LOCAL RI (xy|k) TRANSFORMATION
------------------------------

Dimension of OBS basis                 ... 34
Dimension of (OBS)PAOs                 ... 34
Dimension of the aux-basis             ... 122
Integral mode                          ... Direct

First Phase: integral generation and first transformation of MO indices
 number of shell sets computed                       =               2496
 number of shell sets in domains (without screening) =               2496
 number of shell sets without domains or screening   =               2496
Closing buffer P.kxy_op0.tmp.proc0 ( 0.00 GB; CompressionRatio= 0.91)
Local 3-center integral transformation (op=0) completed in     0.032 sec


-------------------------------------
Pair Pair Term precalculation with     
RI-(ij|mn) and (im|jn) transformation  
ON THE FLY                             
-------------------------------------

   IBatch   1 (of   1)              ... done (    0.183 sec)
Total EXT                           ...           0.183 sec

---------------------
RI-PNO TRANSFORMATION
---------------------

Total Number of PNOs                   ...   304
Total Number of IJ-PNOs                ...    28
Total Number of IP-PNOs                ...    66
Total Number of PQ-PNOs                ...   210
Total Number of IJ-pairs               ...     1
Total Number of PI-pairs               ...     3
Total Number of PQ-pairs               ...     9
Average number of PNOs per pair        ...    23
Maximal number of PNOs per pair        ...    28
>> Statistics for ij-pairs..
   #pairs with  1 -  5 PNOs   :    0
   #pairs with  6 - 10 PNOs   :    0
   #pairs with 11 - 15 PNOs   :    0
   #pairs with 16 - 20 PNOs   :    0
   #pairs with 21 - 25 PNOs   :    0
   #pairs with 26 - 30 PNOs   :    1
   #pairs with 31 - 35 PNOs   :    0
   #pairs with 36 - 40 PNOs   :    0
   #pairs with 41 - 45 PNOs   :    0
   #pairs with 46 - 50 PNOs   :    0
>> Statistics for ip-pairs..
   #pairs with  1 -  5 PNOs   :    0
   #pairs with  6 - 10 PNOs   :    0
   #pairs with 11 - 15 PNOs   :    0
   #pairs with 16 - 20 PNOs   :    0
   #pairs with 21 - 25 PNOs   :    3
   #pairs with 26 - 30 PNOs   :    0
   #pairs with 31 - 35 PNOs   :    0
   #pairs with 36 - 40 PNOs   :    0
   #pairs with 41 - 45 PNOs   :    0
   #pairs with 46 - 50 PNOs   :    0
>> Statistics for pq-pairs..
   #pairs with  1 -  5 PNOs   :    0
   #pairs with  6 - 10 PNOs   :    0
   #pairs with 11 - 15 PNOs   :    0
   #pairs with 16 - 20 PNOs   :    0
   #pairs with 21 - 25 PNOs   :    6
   #pairs with 26 - 30 PNOs   :    3
   #pairs with 31 - 35 PNOs   :    0
   #pairs with 36 - 40 PNOs   :    0
   #pairs with 41 - 45 PNOs   :    0
   #pairs with 46 - 50 PNOs   :    0

Generation of (ij|ab)[P] integrals            ... on
Generation of (ia|bc)[P],(ja|bc)[P] integrals ... on
Storage of 3 and 4 external integrals         ... on
Generation of ALL (ka|bc)[P] integrals        ... on
Keep RI integrals in memory                   ... off

Ibatch:  1 (of  1)
Starting 2-4 index PNO integral generation ... done

Timings:
Total PNO integral transformation time     ...          0.054 sec
Size of the 3-external file                ...         1 MB
Size of the 4-external file                ...         3 MB
Size of the IKJL file                      ...         0 MB
Size of the all 3-external file            ...         2 MB
Size of the 1-external file                ...         0 MB

Size of the PAO/PNO coefficient matrices   ...       0.1 MB

Making pair/pair overlap matrices          ... done (    0.002 sec)
Size of the pair overlap file              ...       0.0 MB
Total # unrestricted pairs ...         10
  # of alpha-alpha pairs   ...          6
  # of alpha-beta pairs    ...          4
  # of beta-beta pairs     ...          0
Constructing the guess amplitudes          ... done (    0.000 sec)

-------------------------
FINAL STARTUP INFORMATION
-------------------------

E(0)                                       ...   -340.715891121
E(SL-UMP2 in NEV-PNO space)                ...     -0.075727870
Initial E(tot)                             ...   -340.791618991
<T|T>                                      ...      0.026920521
Number of unrestricted pairs included      ... 10
Total number of pairs                      ... 10
----------------------------------------------------------
                     OPEN-SHELL COUPLED CLUSTER ITERATIONS
----------------------------------------------------------

Number of PNO amplitudes to be optimized        ...             4038
Number of canonical amplitudes for strong pairs ...             6678
Untruncated number of canonical amplitudes      ...             6678

Iter       E(tot)           E(Corr)          Delta-E          Residual     Time
  0   -340.792426648     -0.075779501     -0.000051631      0.013810972    0.05
                           *** Turning on DIIS ***
  1   -340.802421462     -0.085774314     -0.009994814      0.004637374    0.05
  2   -340.805849190     -0.089202042     -0.003427727      0.000767348    0.05
  3   -340.806049071     -0.089401924     -0.000199882      0.000229551    0.05
  4   -340.806078955     -0.089431807     -0.000029884      0.000032693    0.05
  5   -340.806083730     -0.089436582     -0.000004775      0.000012229    0.05
  6   -340.806084250     -0.089437103     -0.000000521      0.000005426    0.05
               --- The CCSD iterations have converged ---

E(0)                                       ...   -340.715891121
E(CORR)(strong-pairs)                      ...     -0.089437103
E(CORR)(weak-pairs)                        ...     -0.000756026
E(CORR)(corrected)                         ...     -0.090193129
E(TOT)                                     ...   -340.806084250
Singles norm <S|S>**1/2                    ...      0.012664229 ( 0.011716606, 0.000947623)
T1 diagnostic                              ...      0.005663615

----------------------
LARGEST PNO AMPLITUDES
----------------------
   6a-> 11a   5b->  6b       0.056823
   7a-> 11a   5b->  7b       0.056823
   8a-> 11a   5b->  8b       0.056823
   7a-> 12a   5b->  8b       0.049492
   7a-> 13a   5b->  6b       0.049492
   6a-> 12a   5b->  8b       0.049492
   6a-> 13a   5b->  7b       0.049492
   8a-> 12a   5b->  6b       0.049130
   8a-> 13a   5b->  7b       0.049130
   7a-> 11a   6a-> 14a       0.035598
   7a-> 14a   6a-> 11a       0.035598
   8a-> 11a   6a-> 12a       0.035581
   8a-> 12a   6a-> 11a       0.035581
   8a-> 11a   7a-> 13a       0.035518
   8a-> 13a   7a-> 11a       0.035518
   5a-> 12a   5b->  8b       0.025458

Total # unrestricted pairs ...          0
  # of alpha-alpha pairs   ...          0
  # of alpha-beta pairs    ...          0
  # of beta-beta pairs     ...          0

-------------------------------------------
DLPNO BASED TRIPLES CORRECTION
-------------------------------------------

Singles multiplier          ...  1.000000
TCutTNO                     ... 1.000e-09
TCutMP2Pairs                ... 1.000e-05
TCutDOStrong                ... 2.000e-03
TCutMKNStrong               ... 1.000e-02
TCutDOWeak                  ... 4.000e-03
TCutMKNWeak                 ... 1.000e-01
NTCutTNO                    ... 1

Number of Triples that are to be computed         ...        36

 . . . . . . . . .
10% done  
20% done  
30% done  
40% done  
          Batch   1   done (      0.027 sec)

Triples-Correction TCutTNO=   1.000e-09 (NWeakPairs = 0  1  2  3)  -0.002691302262    0.000000000000    0.000000000000    0.000000000000
Triples-Correction  -0.002691302262

Triples timings:
Total time                      ...     0.036 sec

Triples List generation         ...     0.000 sec
TNO generation                  ...     0.009 sec
Pair density generation         ...     0.000 sec
Look up tables                  ...     0.000 sec
Generating 3-index integrals    ...     0.020 sec
Make 4-ind.int. from 3-ind.int  ...     0.001 sec
Projecting amplitudes (D + S)   ...     0.003 sec
Sorting integrals for spin cases...     0.001 sec
Calculate W0/W1                 ...     0.002 sec
Energy contr. (sum over a,b,c)  ...     0.001 sec

Everything after 3-index        ...     0.014 sec

Energy contribution AAA         ...     0.001 sec
Energy contribution AAB         ...     0.002 sec
Energy contribution ABB         ...     0.000 sec
Energy contribution BBB         ...     0.000 sec
prep                ...     0.000 sec
makeTTNO            ...     0.002 sec
copyij              ...     0.000 sec
copyil              ...     0.000 sec
transposeij         ...     0.000 sec
newMatInDoubleProj  ...     0.000 sec
BlasInDoubleProj    ...     0.001 sec
ProjSingles         ...     0.000 sec
ProjDoubles         ...     0.003 sec
overall Doubles for projection      ... 81
used Doubles for projection         ... 81


Number of Triples   (0, 1, 2, 3 weak pairs; overall):      7       0       0       0  (     7)
Number of Atoms     (0, 1, 2, 3 weak pairs; overall):    1.0     0.0     0.0     0.0  (     1)
Number of PAOs      (0, 1, 2, 3 weak pairs; overall):   37.0     0.0     0.0     0.0  (    34)
Number of AuxFcns   (0, 1, 2, 3 weak pairs; overall):  122.0     0.0     0.0     0.0  (   122)
Number of TNOs (0, 1, 2, 3 weak pairs         ):   27.3     0.0     0.0     0.0
Aver. Number of NTNO, Atoms, PAOs, AuxFcns / Triples:      7    27.3     1.0    37.0   122.0

Triples Correction (T)                     ...     -0.002691302
    alpha-alpha-alpha ... -0.000178249 (  6.6%)
    alpha-alpha-beta  ... -0.002513053 ( 93.4%)
    alpha-beta -beta  ...  0.000000000 ( -0.0%)
    beta -beta -beta  ...  0.000000000 ( -0.0%)
Final correlation energy                   ...     -0.092884431
E(CCSD)                                    ...   -340.806084250
E(CCSD(T))                                 ...   -340.808775552

----------------------------
STATISTICS FOR PAIR-ENERGIES
----------------------------
Minimum, maximum and average ratios of UMP and CCSD pair-energies ... 1.01, 1.27, 1.11


------------------------------------------------------------------------------- 
                                     TIMINGS                                   
------------------------------------------------------------------------------- 


Total execution time                   ...        1.958 sec

Localization of occupied MO's          ...        0.392 sec ( 20.0%)
Fock Matrix Formation                  ...        0.343 sec ( 17.5%)
Differential overlap integrals         ...        0.038 sec (  1.9%)
Organizing maps                        ...        0.001 sec (  0.0%)
RI 3-index integral generations        ...        0.134 sec (  6.8%)
RI-PNO integral transformation         ...        0.240 sec ( 12.2%)
Initial Guess                          ...        0.091 sec (  4.7%)
DIIS Solver                            ...        0.003 sec (  0.2%)
State Vector Update                    ...        0.000 sec (  0.0%)
Sigma-vector construction              ...        0.361 sec ( 18.4%)
  <D|H|D>(0-ext)                       ...        0.005 sec (  1.5% of sigma)
  <D|H|D>(2-ext)                       ...        0.031 sec (  8.5% of sigma)
  <D|H|D>(4-ext)                       ...        0.072 sec ( 20.0% of sigma)
  <D|H|D>(4-ext-corr)                  ...        0.140 sec ( 38.9% of sigma)
  CCSD doubles correction              ...        0.005 sec (  1.4% of sigma)
  <S|H|S>                              ...        0.007 sec (  2.1% of sigma)
  <S|H|D>(1-ext)                       ...        0.004 sec (  1.2% of sigma)
  <S|H|D>(3-ext)                       ...        0.006 sec (  1.8% of sigma)
  Fock-dressing                        ...        0.040 sec ( 11.2% of sigma)
  Singles amplitudes                   ...        0.002 sec (  0.5% of sigma)
  (ik|jl)-dressing                     ...        0.005 sec (  1.4% of sigma)
  (ij|ab),(ia|jb)-dressing             ...        0.035 sec (  9.7% of sigma)
Total Time for computing (T)           ...        0.036 sec (  1.8% of ALL)


-------------------------   --------------------
FINAL SINGLE POINT ENERGY      -340.808775552493
-------------------------   --------------------


                            ***************************************
                            *     ORCA property calculations      *
                            ***************************************

                                    ---------------------
                                    Active property flags
                                    ---------------------
   (+) Dipole Moment


------------------------------------------------------------------------------
                       ORCA ELECTRIC PROPERTIES CALCULATION
------------------------------------------------------------------------------

Dipole Moment Calculation                       ... on
Quadrupole Moment Calculation                   ... off
Polarizability Calculation                      ... off
GBWName                                         ... P.gbw
Electron density file                           ... P.scfp.tmp

-------------
DIPOLE MOMENT
-------------
                                X             Y             Z
Electronic contribution:     -0.00000      -0.00000       0.00000
Nuclear contribution   :      0.00000       0.00000       0.00000
                        -----------------------------------------
Total Dipole Moment    :     -0.00000      -0.00000       0.00000
                        -----------------------------------------
Magnitude (a.u.)       :      0.00000
Magnitude (Debye)      :      0.00000


Timings for individual modules:

Sum of individual times         ...        4.556 sec (=   0.076 min)
GTO integral calculation        ...        0.193 sec (=   0.003 min)   4.2 %
SCF iterations                  ...        2.385 sec (=   0.040 min)  52.4 %
MDCI module                     ...        1.977 sec (=   0.033 min)  43.4 %
                             ****ORCA TERMINATED NORMALLY****
TOTAL RUN TIME: 0 days 0 hours 0 minutes 4 seconds 678 msec
