
                                 *****************
                                 * O   R   C   A *
                                 *****************

           --- An Ab Initio, DFT and Semiempirical electronic structure package ---

                  #######################################################
                  #                        -***-                        #
                  #  Department of molecular theory and spectroscopy    #
                  #              Directorship: Frank Neese              #
                  # Max Planck Institute for Chemical Energy Conversion #
                  #                  D-45470 Muelheim/Ruhr              #
                  #                       Germany                       #
                  #                                                     #
                  #                  All rights reserved                #
                  #                        -***-                        #
                  #######################################################


                         Program Version 4.0.0.2 - RELEASE -


 With contributions from (in alphabetic order):
   Daniel Aravena         : Magnetic Properties
   Michael Atanasov       : Ab Initio Ligand Field Theory
   Ute Becker             : Parallelization
   Martin Brehm           : Molecular dynamics
   Dmytro Bykov           : SCF Hessian
   Vijay G. Chilkuri      : MRCI spin determinant printing
   Dipayan Datta          : RHF DLPNO-CCSD density
   Achintya Kumar Dutta   : EOM-CC, STEOM-CC
   Dmitry Ganyushin       : Spin-Orbit,Spin-Spin,Magnetic field MRCI
   Yang Guo               : DLPNO-NEVPT2, CIM, IAO-localization
   Andreas Hansen         : Spin unrestricted coupled pair/coupled cluster methods
   Lee Huntington         : MR-EOM, pCC
   Robert Izsak           : Overlap fitted RIJCOSX, COSX-SCS-MP3, EOM
   Christian Kollmar      : KDIIS, OOCD, Brueckner-CCSD(T), CCSD density
   Simone Kossmann        : Meta GGA functionals, TD-DFT gradient, OOMP2, MP2 Hessian
   Martin Krupicka        : AUTO-CI
   Dagmar Lenk            : GEPOL surface
   Dimitrios Liakos       : Extrapolation schemes; parallel MDCI
   Dimitrios Manganas     : ROCIS; embedding schemes
   Dimitrios Pantazis     : SARC Basis sets
   Taras Petrenko         : DFT Hessian,TD-DFT gradient, ASA, ECA, R-Raman, ABS, FL, XAS/XES, NRVS
   Peter Pinski           : DLPNO-MP2
   Christoph Reimann      : Effective Core Potentials
   Marius Retegan         : Local ZFS, SOC
   Christoph Riplinger    : Optimizer, TS searches, QM/MM, DLPNO-CCSD(T), (RO)-DLPNO pert. Triples
   Tobias Risthaus        : Range-separated hybrids, TD-DFT gradient, RPA, STAB
   Michael Roemelt        : Restricted open shell CIS
   Masaaki Saitow         : Open-shell DLPNO
   Barbara Sandhoefer     : DKH picture change effects
   Kantharuban Sivalingam : CASSCF convergence, NEVPT2, FIC-MRCI
   Georgi Stoychev        : AutoAux
   Boris Wezisla          : Elementary symmetry handling
   Frank Wennmohs         : Technical directorship


 We gratefully acknowledge several colleagues who have allowed us to
 interface, adapt or use parts of their codes:
   Stefan Grimme, W. Hujo, H. Kruse,             : VdW corrections, initial TS optimization,
                  C. Bannwarth                     DFT functionals, gCP, sTDA/sTD-DF
   Ed Valeev                                     : LibInt (2-el integral package), F12 methods
   Garnet Chan, S. Sharma, J. Yang, R. Olivares  : DMRG
   Ulf Ekstrom                                   : XCFun DFT Library
   Mihaly Kallay                                 : mrcc  (arbitrary order and MRCC methods)
   Jiri Pittner, Ondrej Demel                    : Mk-CCSD
   Frank Weinhold                                : gennbo (NPA and NBO analysis)
   Christopher J. Cramer and Donald G. Truhlar   : smd solvation model


 Your calculation uses the libint2 library for the computation of 2-el integrals
 For citations please refer to: http://libint.valeyev.net

 This ORCA versions uses:
   CBLAS   interface :  Fast vector & matrix operations
   LAPACKE interface :  Fast linear algebra routines
   SCALAPACK package :  Parallel linear algebra routines


Your calculation utilizes the atom-pairwise dispersion correction
with the Becke-Johnson damping scheme (D3BJ)
Cite in your paper:
S.Grimme, S.Ehrlich, L.Goerigk, J Comput Chem, (2011), 32, 1456–1465 
S.Grimme, J.Antony, S.Ehrlich and H.Krieg, J.Chem.Phys., 132, (2010), 154104 
   

Your calculation utilizes the basis: def2-TZVP
   F. Weigend and R. Ahlrichs, Phys. Chem. Chem. Phys. 7, 3297 (2005).

Your calculation utilizes the auxiliary basis: def2/J
   F. Weigend, Phys. Chem. Chem. Phys. 8, 1057 (2006).

================================================================================
                                        WARNINGS
                       Please study these warnings very carefully!
================================================================================

Warning: TCutStore was < 0. Adjusted to Thresh (uncritical)

INFO   : the flag for use of LIBINT has been found!

================================================================================
                                       INPUT FILE
================================================================================
NAME = C.inp
|  1> ! UKS pbe d3bj def2-TZVP TightSCF Grid4 RI def2/J RIJCOSX
|  2> * xyz 0 3 
|  3> C  0.0  0.0  0.0
|  4> *
|  5> 
|  6>                          ****END OF INPUT****
================================================================================

                       ****************************
                       * Single Point Calculation *
                       ****************************

---------------------------------
CARTESIAN COORDINATES (ANGSTROEM)
---------------------------------
  C      0.000000    0.000000    0.000000

----------------------------
CARTESIAN COORDINATES (A.U.)
----------------------------
  NO LB      ZA    FRAG     MASS         X           Y           Z
   0 C     6.0000    0    12.011    0.000000    0.000000    0.000000

--------------------------------
INTERNAL COORDINATES (ANGSTROEM)
--------------------------------
 C      0   0   0     0.000000000000     0.00000000     0.00000000

---------------------------
INTERNAL COORDINATES (A.U.)
---------------------------
 C      0   0   0     0.000000000000     0.00000000     0.00000000

---------------------
BASIS SET INFORMATION
---------------------
There are 1 groups of distinct atoms

 Group   1 Type C   : 11s6p2d1f contracted to 5s3p2d1f pattern {62111/411/11/1}

Atom   0C    basis set group =>   1
-------------------------------
AUXILIARY BASIS SET INFORMATION
-------------------------------
There are 1 groups of distinct atoms

 Group   1 Type C   : 12s5p4d2f1g contracted to 6s4p3d1f1g pattern {711111/2111/211/2/1}

Atom   0C    basis set group =>   1
-------------------------
ECP PARAMETER INFORMATION
-------------------------



------------------------------------------------------------------------------
                           ORCA GTO INTEGRAL CALCULATION
                           -- RI-GTO INTEGRALS CHOSEN --
------------------------------------------------------------------------------

                         BASIS SET STATISTICS AND STARTUP INFO

Gaussian basis set:
 # of primitive gaussian shells          ...   20
 # of primitive gaussian functions       ...   46
 # of contracted shells                  ...   11
 # of contracted basis functions         ...   31
 Highest angular momentum                ...    3
 Maximum contraction depth               ...    6
Auxiliary gaussian basis set:
 # of primitive gaussian shells          ...   24
 # of primitive gaussian functions       ...   70
 # of contracted shells                  ...   15
 # of contracted aux-basis functions     ...   49
 Highest angular momentum                ...    4
 Maximum contraction depth               ...    7
Ratio of auxiliary to basis functions    ...  1.58
Integral package used                  ... LIBINT
 One Electron integrals                  
   ECP integrals                         ... done
 Ordering auxiliary basis shells         ... done
 Integral threshhold             Thresh  ...  2.500e-11
 Primitive cut-off               TCut    ...  2.500e-12
 Pre-screening matrix                    ... done
 Shell pair data                         ... 
 Ordering of the shell pairs             ... done (   0.000 sec) 66 of 66 pairs
 Determination of significant pairs      ... done (   0.000 sec)
 Creation of shell pair data             ... done (   0.000 sec)
 Storage of shell pair data              ... done (   0.000 sec)
 Shell pair data done in (   0.000 sec)
 Computing two index integrals           ... done
 Cholesky decomposition of the V-matrix  ... done


Timings:
 Total evaluation time                   ...   0.138 sec (  0.002 min)
 One electron matrix time                ...   0.004 sec (  0.000 min) =  3.1%
 Schwartz matrix evaluation time         ...   0.117 sec (  0.002 min) = 84.9%
 Two index repulsion integral time       ...   0.000 sec (  0.000 min) =  0.1%
 Cholesky decomposition of V             ...   0.000 sec (  0.000 min) =  0.1%
 Three index repulsion integral time     ...   0.000 sec (  0.000 min) =  0.0%

-------------------------------------------------------------------------------
                                 ORCA SCF
-------------------------------------------------------------------------------

------------
SCF SETTINGS
------------
Hamiltonian:
 Density Functional     Method          .... DFT(GTOs)
 Exchange Functional    Exchange        .... PBE
   PBE kappa parameter   XKappa         ....  0.804000
   PBE mue parameter    XMuePBE         ....  0.219520
 Correlation Functional Correlation     .... PBE
   PBE beta parameter  CBetaPBE         ....  0.066725
 LDA part of GGA corr.  LDAOpt          .... PW91-LDA
 Gradients option       PostSCFGGA      .... off
   NL short-range parameter             ....  6.400000
 RI-approximation to the Coulomb term is turned on
   Number of auxiliary basis functions  .... 49
   RIJ-COSX (HFX calculated with COS-X)).... on


General Settings:
 Integral files         IntName         .... C
 Hartree-Fock type      HFTyp           .... UHF
 Total Charge           Charge          ....    0
 Multiplicity           Mult            ....    3
 Number of Electrons    NEL             ....    6
 Basis Dimension        Dim             ....   31
 Nuclear Repulsion      ENuc            ....      0.0000000000 Eh

Convergence Acceleration:
 DIIS                   CNVDIIS         .... on
   Start iteration      DIISMaxIt       ....    12
   Startup error        DIISStart       ....  0.200000
   # of expansion vecs  DIISMaxEq       ....     5
   Bias factor          DIISBfac        ....   1.050
   Max. coefficient     DIISMaxC        ....  10.000
 Newton-Raphson         CNVNR           .... off
 SOSCF                  CNVSOSCF        .... off
 Level Shifting         CNVShift        .... on
   Level shift para.    LevelShift      ....    0.2500
   Turn off err/grad.   ShiftErr        ....    0.0010
 Zerner damping         CNVZerner       .... off
 Static damping         CNVDamp         .... on
   Fraction old density DampFac         ....    0.7000
   Max. Damping (<1)    DampMax         ....    0.9800
   Min. Damping (>=0)   DampMin         ....    0.0000
   Turn off err/grad.   DampErr         ....    0.1000
 Fernandez-Rico         CNVRico         .... off

SCF Procedure:
 Maximum # iterations   MaxIter         ....   125
 SCF integral mode      SCFMode         .... Direct
   Integral package                     .... LIBINT
 Reset frequeny         DirectResetFreq ....    20
 Integral Threshold     Thresh          ....  2.500e-11 Eh
 Primitive CutOff       TCut            ....  2.500e-12 Eh

Convergence Tolerance:
 Convergence Check Mode ConvCheckMode   .... Total+1el-Energy
 Convergence forced     ConvForced      .... 0
 Energy Change          TolE            ....  1.000e-08 Eh
 1-El. energy change                    ....  1.000e-05 Eh
 DIIS Error             TolErr          ....  5.000e-07


Diagonalization of the overlap matrix:
Smallest eigenvalue                        ... 2.860e-02
Time for diagonalization                   ...    0.001 sec
Threshold for overlap eigenvalues          ... 1.000e-08
Number of eigenvalues below threshold      ... 0
Time for construction of square roots      ...    0.000 sec
Total time needed                          ...    0.001 sec

-------------------
DFT GRID GENERATION
-------------------

General Integration Accuracy     IntAcc      ...  4.670
Radial Grid Type                 RadialGrid  ... Gauss-Chebyshev
Angular Grid (max. acc.)         AngularGrid ... Lebedev-302
Angular grid pruning method      GridPruning ... 3 (G Style)
Weight generation scheme         WeightScheme... Becke
Basis function cutoff            BFCut       ...    1.0000e-11
Integration weight cutoff        WCut        ...    1.0000e-14
Grids for H and He will be reduced by one unit

# of grid points (after initial pruning)     ...   6212 (   0.0 sec)
# of grid points (after weights+screening)   ...   6212 (   0.0 sec)
Grid point division into batches done        ...    0.0 sec
Reduced shell lists constructed in    0.0 sec

Total number of grid points                  ...     6212
Total number of batches                      ...       98
Average number of points per batch           ...       63
Average number of grid points per atom       ...     6212
Average number of shells per batch           ...     8.93 (81.18%)
Average number of basis functions per batch  ...    25.94 (83.68%)
Average number of large shells per batch     ...     8.26 (92.53%)
Average number of large basis fcns per batch ...    24.10 (92.91%)
Maximum spatial batch extension              ...  26.79, 20.64, 18.61 au
Average spatial batch extension              ...   5.51,  5.30,  5.06 au

Time for grid setup =    0.043 sec

------------------------------
INITIAL GUESS: MODEL POTENTIAL
------------------------------
Loading Hartree-Fock densities                     ... done
Calculating cut-offs                               ... done
Setting up the integral package                    ... done
Initializing the effective Hamiltonian             ... done
Starting the Coulomb interaction                   ... done (   0.0 sec)
Reading the grid                                   ... done
Mapping shells                                     ... done
Starting the XC term evaluation                    ... done (   0.0 sec)
  promolecular density results
     # of electrons  =      5.999999591
     EX              =     -4.928567370
     EC              =     -0.156736544
     EX+EC           =     -5.085303914
Transforming the Hamiltonian                       ... done (   0.0 sec)
Diagonalizing the Hamiltonian                      ... done (   0.0 sec)
Back transforming the eigenvectors                 ... done (   0.0 sec)
Now organizing SCF variables                       ... done
                      ------------------
                      INITIAL GUESS DONE (   0.2 sec)
                      ------------------
--------------------
COSX GRID GENERATION
--------------------

General Integration Accuracy     IntAcc      ...  3.340
Radial Grid Type                 RadialGrid  ... Gauss-Chebyshev
Angular Grid (max. acc.)         AngularGrid ... Lebedev-50
Angular grid pruning method      GridPruning ... 3 (G Style)
Weight generation scheme         WeightScheme... Becke
Basis function cutoff            BFCut       ...    1.0000e-11
Integration weight cutoff        WCut        ...    1.0000e-14
Grids for H and He will be reduced by one unit

# of grid points (after initial pruning)     ...    580 (   0.0 sec)
# of grid points (after weights+screening)   ...    580 (   0.0 sec)
Grid point division into batches done        ...    0.0 sec
Reduced shell lists constructed in    0.0 sec

Total number of grid points                  ...      580
Total number of batches                      ...       10
Average number of points per batch           ...       58
Average number of grid points per atom       ...      580
Average number of shells per batch           ...     9.82 (89.26%)
Average number of basis functions per batch  ...    28.00 (90.32%)
Average number of large shells per batch     ...     9.45 (96.30%)
Average number of large basis fcns per batch ...    27.64 (98.70%)
Maximum spatial batch extension              ...  20.68, 25.32, 25.32 au
Average spatial batch extension              ...   8.88,  9.68, 14.06 au

Overlap Fitting                  UseSFitting ... on
Constructing numerical overlap ... done (      0.0 sec)
Inverting numerical overlap    ... done (      0.0 sec)
Obtaining analytic overlap     ... done (      0.0 sec)
Final contraction and storage  ... done (      0.0 sec)


General Integration Accuracy     IntAcc      ...  3.670
Radial Grid Type                 RadialGrid  ... Gauss-Chebyshev
Angular Grid (max. acc.)         AngularGrid ... Lebedev-50
Angular grid pruning method      GridPruning ... 3 (G Style)
Weight generation scheme         WeightScheme... Becke
Basis function cutoff            BFCut       ...    1.0000e-11
Integration weight cutoff        WCut        ...    1.0000e-14
Grids for H and He will be reduced by one unit

# of grid points (after initial pruning)     ...    706 (   0.0 sec)
# of grid points (after weights+screening)   ...    706 (   0.0 sec)
Grid point division into batches done        ...    0.0 sec
Reduced shell lists constructed in    0.0 sec

Total number of grid points                  ...      706
Total number of batches                      ...       12
Average number of points per batch           ...       58
Average number of grid points per atom       ...      706
Average number of shells per batch           ...     9.85 (89.51%)
Average number of basis functions per batch  ...    28.31 (91.32%)
Average number of large shells per batch     ...     9.54 (96.87%)
Average number of large basis fcns per batch ...    28.00 (98.91%)
Maximum spatial batch extension              ...  22.63, 27.71, 27.71 au
Average spatial batch extension              ...   8.55, 12.28, 13.26 au

Overlap Fitting                  UseSFitting ... on
Constructing numerical overlap ... done (      0.0 sec)
Inverting numerical overlap    ... done (      0.0 sec)
Obtaining analytic overlap     ... done (      0.0 sec)
Final contraction and storage  ... done (      0.0 sec)


General Integration Accuracy     IntAcc      ...  4.010
Radial Grid Type                 RadialGrid  ... Gauss-Chebyshev
Angular Grid (max. acc.)         AngularGrid ... Lebedev-110
Angular grid pruning method      GridPruning ... 3 (G Style)
Weight generation scheme         WeightScheme... Becke
Basis function cutoff            BFCut       ...    1.0000e-11
Integration weight cutoff        WCut        ...    1.0000e-14
Grids for H and He will be reduced by one unit

# of grid points (after initial pruning)     ...   1468 (   0.0 sec)
# of grid points (after weights+screening)   ...   1468 (   0.0 sec)
Grid point division into batches done        ...    0.0 sec
Reduced shell lists constructed in    0.0 sec

Total number of grid points                  ...     1468
Total number of batches                      ...       23
Average number of points per batch           ...       63
Average number of grid points per atom       ...     1468
Average number of shells per batch           ...     9.75 (88.64%)
Average number of basis functions per batch  ...    28.92 (93.28%)
Average number of large shells per batch     ...     9.33 (95.73%)
Average number of large basis fcns per batch ...    27.67 (95.68%)
Maximum spatial batch extension              ...  17.91, 29.68, 29.68 au
Average spatial batch extension              ...   9.34, 10.73, 11.71 au

Overlap Fitting                  UseSFitting ... on
Constructing numerical overlap ... done (      0.0 sec)
Inverting numerical overlap    ... done (      0.0 sec)
Obtaining analytic overlap     ... done (      0.0 sec)
Final contraction and storage  ... done (      0.0 sec)

Time for X-Grid setup             =    0.095 sec
--------------
SCF ITERATIONS
--------------
ITER       Energy         Delta-E        Max-DP      RMS-DP      [F,P]     Damp
               ***  Starting incremental Fock matrix formation  ***
  0    -37.7900948839   0.000000000000 0.00932698  0.00061648  0.0367330 0.7000
  1    -37.7921249378  -0.002030053876 0.00916949  0.00055426  0.0245754 0.7000
                               ***Turning on DIIS***
  2    -37.7934030417  -0.001278103922 0.02213383  0.00129515  0.0141942 0.0000
  3    -37.7957011681  -0.002298126426 0.00799124  0.00040770  0.0126421 0.0000
  4    -37.7959816435  -0.000280475332 0.00253417  0.00010622  0.0014117 0.0000
  5    -37.7959895737  -0.000007930216 0.00117809  0.00004087  0.0001914 0.0000
  6    -37.7959901042  -0.000000530543 0.00003950  0.00000230  0.0000390 0.0000
  7    -37.7959901105  -0.000000006314 0.00000492  0.00000023  0.0000055 0.0000
                 **** Energy Check signals convergence ****

               *****************************************************
               *                     SUCCESS                       *
               *           SCF CONVERGED AFTER   8 CYCLES          *
               *****************************************************

Setting up the final grid:

General Integration Accuracy     IntAcc      ...  5.010
Radial Grid Type                 RadialGrid  ... Gauss-Chebyshev
Angular Grid (max. acc.)         AngularGrid ... Lebedev-434
Angular grid pruning method      GridPruning ... 3 (G Style)
Weight generation scheme         WeightScheme... Becke
Basis function cutoff            BFCut       ...    1.0000e-11
Integration weight cutoff        WCut        ...    1.0000e-14
Grids for H and He will be reduced by one unit

# of grid points (after initial pruning)     ...  10698 (   0.0 sec)
# of grid points (after weights+screening)   ...  10698 (   0.0 sec)
Grid point division into batches done        ...    0.1 sec
Reduced shell lists constructed in    0.1 sec

Total number of grid points                  ...    10698
Total number of batches                      ...      168
Average number of points per batch           ...       63
Average number of grid points per atom       ...    10698
Average number of shells per batch           ...     8.49 (77.14%)
Average number of basis functions per batch  ...    24.79 (79.98%)
Average number of large shells per batch     ...     8.09 (95.40%)
Average number of large basis fcns per batch ...    23.74 (95.75%)
Maximum spatial batch extension              ...  19.91, 19.91, 19.91 au
Average spatial batch extension              ...   4.76,  4.68,  4.61 au

Final grid set up in    0.1 sec
Final integration                            ... done (   0.1 sec)
Change in XC energy                          ...    -0.000001614
Integrated number of electrons               ...     5.999999943
Previous integrated no of electrons          ...     6.000000474

----------------
TOTAL SCF ENERGY
----------------

Total Energy       :          -37.79599172 Eh           -1028.48122 eV

Components:
Nuclear Repulsion  :            0.00000000 Eh               0.00000 eV
Electronic Energy  :          -37.79599172 Eh           -1028.48122 eV
One Electron Energy:          -50.45211292 Eh           -1372.87179 eV
Two Electron Energy:           12.65612119 Eh             344.39057 eV

Virial components:
Potential Energy   :          -75.48152765 Eh           -2053.95679 eV
Kinetic Energy     :           37.68553593 Eh            1025.47557 eV
Virial Ratio       :            2.00293099


DFT components:
N(Alpha)           :        3.999999971370 electrons
N(Beta)            :        1.999999971399 electrons
N(Total)           :        5.999999942769 electrons
E(X)               :       -5.020856978973 Eh       
E(C)               :       -0.144025251835 Eh       
E(XC)              :       -5.164882230808 Eh       

---------------
SCF CONVERGENCE
---------------

  Last Energy change         ...    1.8800e-10  Tolerance :   1.0000e-08
  Last MAX-Density change    ...    1.4665e-06  Tolerance :   1.0000e-07
  Last RMS-Density change    ...    8.1552e-08  Tolerance :   5.0000e-09
  Last DIIS Error            ...    3.9198e-07  Tolerance :   5.0000e-07

             **** THE GBW FILE WAS UPDATED (C.gbw) ****
             **** DENSITY FILE WAS UPDATED (C.scfp.tmp) ****
             **** ENERGY FILE WAS UPDATED (C.en.tmp) ****
----------------------
UHF SPIN CONTAMINATION
----------------------

Warning: in a DFT calculation there is little theoretical justification to 
         calculate <S**2> as in Hartree-Fock theory. We will do it anyways
         but you should keep in mind that the values have only limited relevance

Expectation value of <S**2>     :     2.002891
Ideal value S*(S+1) for S=1.0   :     2.000000
Deviation                       :     0.002891

----------------
ORBITAL ENERGIES
----------------
                 SPIN UP ORBITALS
  NO   OCC          E(Eh)            E(eV) 
   0   1.0000     -10.023826      -272.7622 
   1   1.0000      -0.528892       -14.3919 
   2   1.0000      -0.222516        -6.0550 
   3   1.0000      -0.222516        -6.0550 
   4   0.0000      -0.203653        -5.5417 
   5   0.0000       0.114905         3.1267 
   6   0.0000       0.191536         5.2120 
   7   0.0000       0.191536         5.2120 
   8   0.0000       0.199939         5.4406 
   9   0.0000       0.605126        16.4663 
  10   0.0000       0.605126        16.4663 
  11   0.0000       0.607989        16.5442 
  12   0.0000       0.607989        16.5442 
  13   0.0000       0.618702        16.8357 
  14   0.0000       1.140717        31.0405 
  15   0.0000       1.282514        34.8990 
  16   0.0000       1.282514        34.8990 
  17   0.0000       1.304981        35.5103 
  18   0.0000       2.545816        69.2752 
  19   0.0000       2.545817        69.2752 
  20   0.0000       2.545967        69.2793 
  21   0.0000       2.545967        69.2793 
  22   0.0000       2.554328        69.5068 
  23   0.0000       2.554329        69.5068 
  24   0.0000       2.563732        69.7627 
  25   0.0000       2.792043        75.9754 
  26   0.0000       2.792043        75.9754 
  27   0.0000       2.801613        76.2358 
  28   0.0000       2.801614        76.2358 
  29   0.0000       2.824608        76.8615 
  30   0.0000      20.890843       568.4687 

                 SPIN DOWN ORBITALS
  NO   OCC          E(Eh)            E(eV) 
   0   1.0000      -9.996292      -272.0129 
   1   1.0000      -0.435096       -11.8396 
   2   0.0000      -0.169152        -4.6029 
   3   0.0000      -0.111276        -3.0280 
   4   0.0000      -0.111276        -3.0280 
   5   0.0000       0.154552         4.2056 
   6   0.0000       0.222067         6.0428 
   7   0.0000       0.250245         6.8095 
   8   0.0000       0.250245         6.8095 
   9   0.0000       0.657325        17.8867 
  10   0.0000       0.667403        18.1609 
  11   0.0000       0.667403        18.1609 
  12   0.0000       0.699331        19.0298 
  13   0.0000       0.699331        19.0298 
  14   0.0000       1.217826        33.1387 
  15   0.0000       1.333323        36.2816 
  16   0.0000       1.381331        37.5879 
  17   0.0000       1.381331        37.5879 
  18   0.0000       2.615274        71.1652 
  19   0.0000       2.623380        71.3858 
  20   0.0000       2.623380        71.3858 
  21   0.0000       2.645719        71.9937 
  22   0.0000       2.645719        71.9937 
  23   0.0000       2.682317        72.9896 
  24   0.0000       2.682317        72.9896 
  25   0.0000       2.872611        78.1677 
  26   0.0000       2.891847        78.6912 
  27   0.0000       2.891847        78.6912 
  28   0.0000       2.943776        80.1042 
  29   0.0000       2.943776        80.1042 
  30   0.0000      20.925361       569.4080 

                    ********************************
                    * MULLIKEN POPULATION ANALYSIS *
                    ********************************

--------------------------------------------
MULLIKEN ATOMIC CHARGES AND SPIN POPULATIONS
--------------------------------------------
   0 C :   -0.000000    2.000000
Sum of atomic charges         :   -0.0000000
Sum of atomic spin populations:    2.0000000

-----------------------------------------------------
MULLIKEN REDUCED ORBITAL CHARGES AND SPIN POPULATIONS
-----------------------------------------------------
CHARGE
  0 C s       :     3.998823  s :     3.998823
      pz      :     0.990257  p :     1.999998
      px      :     0.051001
      py      :     0.958740
      dz2     :     0.000277  d :     0.001177
      dxz     :     0.000033
      dyz     :     0.000001
      dx2y2   :     0.000727
      dxy     :     0.000138
      f0      :     0.000000  f :     0.000002
      f+1     :     0.000000
      f-1     :     0.000000
      f+2     :     0.000001
      f-2     :     0.000000
      f+3     :     0.000000
      f-3     :     0.000001

SPIN
  0 C s       :     0.001053  s :     0.001053
      pz      :     0.990257  p :     1.999998
      px      :     0.051001
      py      :     0.958740
      dz2     :    -0.000248  d :    -0.001053
      dxz     :    -0.000029
      dyz     :    -0.000001
      dx2y2   :    -0.000651
      dxy     :    -0.000124
      f0      :     0.000000  f :     0.000002
      f+1     :     0.000000
      f-1     :     0.000000
      f+2     :     0.000001
      f-2     :     0.000000
      f+3     :     0.000000
      f-3     :     0.000001


                     *******************************
                     * LOEWDIN POPULATION ANALYSIS *
                     *******************************

-------------------------------------------
LOEWDIN ATOMIC CHARGES AND SPIN POPULATIONS
-------------------------------------------
   0 C :    0.000000    2.000000

----------------------------------------------------
LOEWDIN REDUCED ORBITAL CHARGES AND SPIN POPULATIONS
----------------------------------------------------
CHARGE
  0 C s       :     3.998823  s :     3.998823
      pz      :     0.990257  p :     1.999998
      px      :     0.051001
      py      :     0.958740
      dz2     :     0.000277  d :     0.001177
      dxz     :     0.000033
      dyz     :     0.000001
      dx2y2   :     0.000727
      dxy     :     0.000138
      f0      :     0.000000  f :     0.000002
      f+1     :     0.000000
      f-1     :     0.000000
      f+2     :     0.000001
      f-2     :     0.000000
      f+3     :     0.000000
      f-3     :     0.000001

SPIN
  0 C s       :     0.001053  s :     0.001053
      pz      :     0.990257  p :     1.999998
      px      :     0.051001
      py      :     0.958740
      dz2     :    -0.000248  d :    -0.001053
      dxz     :    -0.000029
      dyz     :    -0.000001
      dx2y2   :    -0.000651
      dxy     :    -0.000124
      f0      :     0.000000  f :     0.000002
      f+1     :     0.000000
      f-1     :     0.000000
      f+2     :     0.000001
      f-2     :     0.000000
      f+3     :     0.000000
      f-3     :     0.000001


                      *****************************
                      * MAYER POPULATION ANALYSIS *
                      *****************************

  NA   - Mulliken gross atomic population
  ZA   - Total nuclear charge
  QA   - Mulliken gross atomic charge
  VA   - Mayer's total valence
  BVA  - Mayer's bonded valence
  FA   - Mayer's free valence

  ATOM       NA         ZA         QA         VA         BVA        FA
  0 C      6.0000     6.0000    -0.0000     2.0058     0.0000     2.0058

  Mayer bond orders larger than 0.1


-------
TIMINGS
-------

Total SCF time: 0 days 0 hours 0 min 1 sec 

Total time                  ....       1.427 sec
Sum of individual times     ....       1.422 sec  ( 99.6%)

Fock matrix formation       ....       1.049 sec  ( 73.5%)
  Split-RI-J                ....       0.713 sec  ( 68.0% of F)
  XC integration            ....       0.330 sec  ( 31.5% of F)
    Basis function eval.    ....       0.132 sec  ( 39.9% of XC)
    Density eval.           ....       0.055 sec  ( 16.7% of XC)
    XC-Functional eval.     ....       0.061 sec  ( 18.6% of XC)
    XC-Potential eval.      ....       0.068 sec  ( 20.4% of XC)
Diagonalization             ....       0.006 sec  (  0.4%)
Density matrix formation    ....       0.000 sec  (  0.0%)
Population analysis         ....       0.001 sec  (  0.1%)
Initial guess               ....       0.117 sec  (  8.2%)
Orbital Transformation      ....       0.000 sec  (  0.0%)
Orbital Orthonormalization  ....       0.000 sec  (  0.0%)
DIIS solution               ....       0.001 sec  (  0.1%)
Grid generation             ....       0.247 sec  ( 17.3%)


-------------------------------------------------------------------------------
                          DFT DISPERSION CORRECTION                            
                                                                               
                              DFTD3 V3.1  Rev 1                                
                          USING Becke-Johnson damping                          
-------------------------------------------------------------------------------
The PBE functional is recognized
Active option DFTDOPT                   ...         4   

molecular C6(AA) [au] = 48.991680 


            DFT-D V3
 parameters
 s6 scaling factor         :     1.0000 
 a1 scaling factor         :     0.4289 
 s8 scaling factor         :     0.7875 
 a2 scaling factor         :     4.4407 
 ad hoc parameters k1-k3   :    16.0000     1.3333    -4.0000 

 Edisp/kcal,au: -0.000000000000  -0.000000000000 
 E6   /kcal   :  -0.000000000 
 E8   /kcal   :  -0.000000000 
 % E8         :           nan 

-------------------------   ----------------
Dispersion correction           -0.000000000
-------------------------   ----------------


-------------------------   --------------------
FINAL SINGLE POINT ENERGY       -37.795991724169
-------------------------   --------------------


                            ***************************************
                            *     ORCA property calculations      *
                            ***************************************

                                    ---------------------
                                    Active property flags
                                    ---------------------
   (+) Dipole Moment


------------------------------------------------------------------------------
                       ORCA ELECTRIC PROPERTIES CALCULATION
------------------------------------------------------------------------------

Dipole Moment Calculation                       ... on
Quadrupole Moment Calculation                   ... off
Polarizability Calculation                      ... off
GBWName                                         ... C.gbw
Electron density file                           ... C.scfp.tmp

-------------
DIPOLE MOMENT
-------------
                                X             Y             Z
Electronic contribution:     -0.00000       0.00000      -0.00000
Nuclear contribution   :      0.00000       0.00000       0.00000
                        -----------------------------------------
Total Dipole Moment    :     -0.00000       0.00000      -0.00000
                        -----------------------------------------
Magnitude (a.u.)       :      0.00000
Magnitude (Debye)      :      0.00000


Timings for individual modules:

Sum of individual times         ...        1.606 sec (=   0.027 min)
GTO integral calculation        ...        0.161 sec (=   0.003 min)  10.0 %
SCF iterations                  ...        1.445 sec (=   0.024 min)  90.0 %
                             ****ORCA TERMINATED NORMALLY****
TOTAL RUN TIME: 0 days 0 hours 0 minutes 1 seconds 819 msec
