
                                 *****************
                                 * O   R   C   A *
                                 *****************

           --- An Ab Initio, DFT and Semiempirical electronic structure package ---

                  #######################################################
                  #                        -***-                        #
                  #  Department of molecular theory and spectroscopy    #
                  #              Directorship: Frank Neese              #
                  # Max Planck Institute for Chemical Energy Conversion #
                  #                  D-45470 Muelheim/Ruhr              #
                  #                       Germany                       #
                  #                                                     #
                  #                  All rights reserved                #
                  #                        -***-                        #
                  #######################################################


                         Program Version 4.0.0.2 - RELEASE -


 With contributions from (in alphabetic order):
   Daniel Aravena         : Magnetic Properties
   Michael Atanasov       : Ab Initio Ligand Field Theory
   Ute Becker             : Parallelization
   Martin Brehm           : Molecular dynamics
   Dmytro Bykov           : SCF Hessian
   Vijay G. Chilkuri      : MRCI spin determinant printing
   Dipayan Datta          : RHF DLPNO-CCSD density
   Achintya Kumar Dutta   : EOM-CC, STEOM-CC
   Dmitry Ganyushin       : Spin-Orbit,Spin-Spin,Magnetic field MRCI
   Yang Guo               : DLPNO-NEVPT2, CIM, IAO-localization
   Andreas Hansen         : Spin unrestricted coupled pair/coupled cluster methods
   Lee Huntington         : MR-EOM, pCC
   Robert Izsak           : Overlap fitted RIJCOSX, COSX-SCS-MP3, EOM
   Christian Kollmar      : KDIIS, OOCD, Brueckner-CCSD(T), CCSD density
   Simone Kossmann        : Meta GGA functionals, TD-DFT gradient, OOMP2, MP2 Hessian
   Martin Krupicka        : AUTO-CI
   Dagmar Lenk            : GEPOL surface
   Dimitrios Liakos       : Extrapolation schemes; parallel MDCI
   Dimitrios Manganas     : ROCIS; embedding schemes
   Dimitrios Pantazis     : SARC Basis sets
   Taras Petrenko         : DFT Hessian,TD-DFT gradient, ASA, ECA, R-Raman, ABS, FL, XAS/XES, NRVS
   Peter Pinski           : DLPNO-MP2
   Christoph Reimann      : Effective Core Potentials
   Marius Retegan         : Local ZFS, SOC
   Christoph Riplinger    : Optimizer, TS searches, QM/MM, DLPNO-CCSD(T), (RO)-DLPNO pert. Triples
   Tobias Risthaus        : Range-separated hybrids, TD-DFT gradient, RPA, STAB
   Michael Roemelt        : Restricted open shell CIS
   Masaaki Saitow         : Open-shell DLPNO
   Barbara Sandhoefer     : DKH picture change effects
   Kantharuban Sivalingam : CASSCF convergence, NEVPT2, FIC-MRCI
   Georgi Stoychev        : AutoAux
   Boris Wezisla          : Elementary symmetry handling
   Frank Wennmohs         : Technical directorship


 We gratefully acknowledge several colleagues who have allowed us to
 interface, adapt or use parts of their codes:
   Stefan Grimme, W. Hujo, H. Kruse,             : VdW corrections, initial TS optimization,
                  C. Bannwarth                     DFT functionals, gCP, sTDA/sTD-DF
   Ed Valeev                                     : LibInt (2-el integral package), F12 methods
   Garnet Chan, S. Sharma, J. Yang, R. Olivares  : DMRG
   Ulf Ekstrom                                   : XCFun DFT Library
   Mihaly Kallay                                 : mrcc  (arbitrary order and MRCC methods)
   Jiri Pittner, Ondrej Demel                    : Mk-CCSD
   Frank Weinhold                                : gennbo (NPA and NBO analysis)
   Christopher J. Cramer and Donald G. Truhlar   : smd solvation model


 Your calculation uses the libint2 library for the computation of 2-el integrals
 For citations please refer to: http://libint.valeyev.net

 This ORCA versions uses:
   CBLAS   interface :  Fast vector & matrix operations
   LAPACKE interface :  Fast linear algebra routines
   SCALAPACK package :  Parallel linear algebra routines


Your calculation utilizes the atom-pairwise dispersion correction
with the Becke-Johnson damping scheme (D3BJ)
Cite in your paper:
S.Grimme, S.Ehrlich, L.Goerigk, J Comput Chem, (2011), 32, 1456–1465 
S.Grimme, J.Antony, S.Ehrlich and H.Krieg, J.Chem.Phys., 132, (2010), 154104 
   

Your calculation utilizes the basis: def2-TZVP
   F. Weigend and R. Ahlrichs, Phys. Chem. Chem. Phys. 7, 3297 (2005).

Your calculation utilizes the auxiliary basis: def2/J
   F. Weigend, Phys. Chem. Chem. Phys. 8, 1057 (2006).

================================================================================
                                        WARNINGS
                       Please study these warnings very carefully!
================================================================================

Warning: TCutStore was < 0. Adjusted to Thresh (uncritical)

INFO   : the flag for use of LIBINT has been found!

================================================================================
                                       INPUT FILE
================================================================================
NAME = P.inp
|  1> ! UKS pbe d3bj def2-TZVP TightSCF Grid4 RI def2/J RIJCOSX
|  2> * xyz 0 4 
|  3> P  0.0  0.0  0.0
|  4> *
|  5> 
|  6>                          ****END OF INPUT****
================================================================================

                       ****************************
                       * Single Point Calculation *
                       ****************************

---------------------------------
CARTESIAN COORDINATES (ANGSTROEM)
---------------------------------
  P      0.000000    0.000000    0.000000

----------------------------
CARTESIAN COORDINATES (A.U.)
----------------------------
  NO LB      ZA    FRAG     MASS         X           Y           Z
   0 P    15.0000    0    30.974    0.000000    0.000000    0.000000

--------------------------------
INTERNAL COORDINATES (ANGSTROEM)
--------------------------------
 P      0   0   0     0.000000000000     0.00000000     0.00000000

---------------------------
INTERNAL COORDINATES (A.U.)
---------------------------
 P      0   0   0     0.000000000000     0.00000000     0.00000000

---------------------
BASIS SET INFORMATION
---------------------
There are 1 groups of distinct atoms

 Group   1 Type P   : 14s9p3d1f contracted to 5s5p2d1f pattern {73211/51111/21/1}

Atom   0P    basis set group =>   1
-------------------------------
AUXILIARY BASIS SET INFORMATION
-------------------------------
There are 1 groups of distinct atoms

 Group   1 Type P   : 14s5p5d2f1g contracted to 8s4p3d1f1g pattern {71111111/2111/311/2/1}

Atom   0P    basis set group =>   1
-------------------------
ECP PARAMETER INFORMATION
-------------------------



------------------------------------------------------------------------------
                           ORCA GTO INTEGRAL CALCULATION
                           -- RI-GTO INTEGRALS CHOSEN --
------------------------------------------------------------------------------

                         BASIS SET STATISTICS AND STARTUP INFO

Gaussian basis set:
 # of primitive gaussian shells          ...   27
 # of primitive gaussian functions       ...   63
 # of contracted shells                  ...   13
 # of contracted basis functions         ...   37
 Highest angular momentum                ...    3
 Maximum contraction depth               ...    7
Auxiliary gaussian basis set:
 # of primitive gaussian shells          ...   27
 # of primitive gaussian functions       ...   77
 # of contracted shells                  ...   17
 # of contracted aux-basis functions     ...   51
 Highest angular momentum                ...    4
 Maximum contraction depth               ...    7
Ratio of auxiliary to basis functions    ...  1.38
Integral package used                  ... LIBINT
 One Electron integrals                  
   ECP integrals                         ... done
 Ordering auxiliary basis shells         ... done
 Integral threshhold             Thresh  ...  2.500e-11
 Primitive cut-off               TCut    ...  2.500e-12
 Pre-screening matrix                    ... done
 Shell pair data                         ... 
 Ordering of the shell pairs             ... done (   0.000 sec) 91 of 91 pairs
 Determination of significant pairs      ... done (   0.000 sec)
 Creation of shell pair data             ... done (   0.000 sec)
 Storage of shell pair data              ... done (   0.000 sec)
 Shell pair data done in (   0.000 sec)
 Computing two index integrals           ... done
 Cholesky decomposition of the V-matrix  ... done


Timings:
 Total evaluation time                   ...   0.141 sec (  0.002 min)
 One electron matrix time                ...   0.004 sec (  0.000 min) =  3.0%
 Schwartz matrix evaluation time         ...   0.120 sec (  0.002 min) = 85.2%
 Two index repulsion integral time       ...   0.000 sec (  0.000 min) =  0.1%
 Cholesky decomposition of V             ...   0.000 sec (  0.000 min) =  0.1%
 Three index repulsion integral time     ...   0.000 sec (  0.000 min) =  0.0%

-------------------------------------------------------------------------------
                                 ORCA SCF
-------------------------------------------------------------------------------

------------
SCF SETTINGS
------------
Hamiltonian:
 Density Functional     Method          .... DFT(GTOs)
 Exchange Functional    Exchange        .... PBE
   PBE kappa parameter   XKappa         ....  0.804000
   PBE mue parameter    XMuePBE         ....  0.219520
 Correlation Functional Correlation     .... PBE
   PBE beta parameter  CBetaPBE         ....  0.066725
 LDA part of GGA corr.  LDAOpt          .... PW91-LDA
 Gradients option       PostSCFGGA      .... off
   NL short-range parameter             ....  6.400000
 RI-approximation to the Coulomb term is turned on
   Number of auxiliary basis functions  .... 51
   RIJ-COSX (HFX calculated with COS-X)).... on


General Settings:
 Integral files         IntName         .... P
 Hartree-Fock type      HFTyp           .... UHF
 Total Charge           Charge          ....    0
 Multiplicity           Mult            ....    4
 Number of Electrons    NEL             ....   15
 Basis Dimension        Dim             ....   37
 Nuclear Repulsion      ENuc            ....      0.0000000000 Eh

Convergence Acceleration:
 DIIS                   CNVDIIS         .... on
   Start iteration      DIISMaxIt       ....    12
   Startup error        DIISStart       ....  0.200000
   # of expansion vecs  DIISMaxEq       ....     5
   Bias factor          DIISBfac        ....   1.050
   Max. coefficient     DIISMaxC        ....  10.000
 Newton-Raphson         CNVNR           .... off
 SOSCF                  CNVSOSCF        .... off
 Level Shifting         CNVShift        .... on
   Level shift para.    LevelShift      ....    0.2500
   Turn off err/grad.   ShiftErr        ....    0.0010
 Zerner damping         CNVZerner       .... off
 Static damping         CNVDamp         .... on
   Fraction old density DampFac         ....    0.7000
   Max. Damping (<1)    DampMax         ....    0.9800
   Min. Damping (>=0)   DampMin         ....    0.0000
   Turn off err/grad.   DampErr         ....    0.1000
 Fernandez-Rico         CNVRico         .... off

SCF Procedure:
 Maximum # iterations   MaxIter         ....   125
 SCF integral mode      SCFMode         .... Direct
   Integral package                     .... LIBINT
 Reset frequeny         DirectResetFreq ....    20
 Integral Threshold     Thresh          ....  2.500e-11 Eh
 Primitive CutOff       TCut            ....  2.500e-12 Eh

Convergence Tolerance:
 Convergence Check Mode ConvCheckMode   .... Total+1el-Energy
 Convergence forced     ConvForced      .... 0
 Energy Change          TolE            ....  1.000e-08 Eh
 1-El. energy change                    ....  1.000e-05 Eh
 DIIS Error             TolErr          ....  5.000e-07


Diagonalization of the overlap matrix:
Smallest eigenvalue                        ... 5.460e-02
Time for diagonalization                   ...    0.001 sec
Threshold for overlap eigenvalues          ... 1.000e-08
Number of eigenvalues below threshold      ... 0
Time for construction of square roots      ...    0.000 sec
Total time needed                          ...    0.001 sec

-------------------
DFT GRID GENERATION
-------------------

General Integration Accuracy     IntAcc      ...  4.670
Radial Grid Type                 RadialGrid  ... Gauss-Chebyshev
Angular Grid (max. acc.)         AngularGrid ... Lebedev-302
Angular grid pruning method      GridPruning ... 3 (G Style)
Weight generation scheme         WeightScheme... Becke
Basis function cutoff            BFCut       ...    1.0000e-11
Integration weight cutoff        WCut        ...    1.0000e-14
Grids for H and He will be reduced by one unit

# of grid points (after initial pruning)     ...   6846 (   0.0 sec)
# of grid points (after weights+screening)   ...   6846 (   0.0 sec)
Grid point division into batches done        ...    0.0 sec
Reduced shell lists constructed in    0.1 sec

Total number of grid points                  ...     6846
Total number of batches                      ...      107
Average number of points per batch           ...       63
Average number of grid points per atom       ...     6846
Average number of shells per batch           ...     9.75 (75.00%)
Average number of basis functions per batch  ...    29.44 (79.55%)
Average number of large shells per batch     ...     9.01 (92.40%)
Average number of large basis fcns per batch ...    27.64 (93.90%)
Maximum spatial batch extension              ...  27.84, 21.45, 18.12 au
Average spatial batch extension              ...   5.53,  5.29,  5.05 au

Time for grid setup =    0.056 sec

------------------------------
INITIAL GUESS: MODEL POTENTIAL
------------------------------
Loading Hartree-Fock densities                     ... done
Calculating cut-offs                               ... done
Setting up the integral package                    ... done
Initializing the effective Hamiltonian             ... done
Starting the Coulomb interaction                   ... done (   0.0 sec)
Reading the grid                                   ... done
Mapping shells                                     ... done
Starting the XC term evaluation                    ... done (   0.0 sec)
  promolecular density results
     # of electrons  =     14.999999800
     EX              =    -22.414837265
     EC              =     -0.543921503
     EX+EC           =    -22.958758769
Transforming the Hamiltonian                       ... done (   0.0 sec)
Diagonalizing the Hamiltonian                      ... done (   0.0 sec)
Back transforming the eigenvectors                 ... done (   0.0 sec)
Now organizing SCF variables                       ... done
                      ------------------
                      INITIAL GUESS DONE (   0.2 sec)
                      ------------------
--------------------
COSX GRID GENERATION
--------------------

General Integration Accuracy     IntAcc      ...  3.340
Radial Grid Type                 RadialGrid  ... Gauss-Chebyshev
Angular Grid (max. acc.)         AngularGrid ... Lebedev-50
Angular grid pruning method      GridPruning ... 3 (G Style)
Weight generation scheme         WeightScheme... Becke
Basis function cutoff            BFCut       ...    1.0000e-11
Integration weight cutoff        WCut        ...    1.0000e-14
Grids for H and He will be reduced by one unit

# of grid points (after initial pruning)     ...    706 (   0.0 sec)
# of grid points (after weights+screening)   ...    706 (   0.0 sec)
Grid point division into batches done        ...    0.0 sec
Reduced shell lists constructed in    0.0 sec

Total number of grid points                  ...      706
Total number of batches                      ...       12
Average number of points per batch           ...       58
Average number of grid points per atom       ...      706
Average number of shells per batch           ...    11.38 (87.57%)
Average number of basis functions per batch  ...    33.23 (89.81%)
Average number of large shells per batch     ...    10.77 (94.59%)
Average number of large basis fcns per batch ...    32.00 (96.30%)
Maximum spatial batch extension              ...  22.63, 27.71, 27.71 au
Average spatial batch extension              ...   8.55, 12.28, 13.26 au

Overlap Fitting                  UseSFitting ... on
Constructing numerical overlap ... done (      0.0 sec)
Inverting numerical overlap    ... done (      0.0 sec)
Obtaining analytic overlap     ... done (      0.0 sec)
Final contraction and storage  ... done (      0.0 sec)


General Integration Accuracy     IntAcc      ...  3.670
Radial Grid Type                 RadialGrid  ... Gauss-Chebyshev
Angular Grid (max. acc.)         AngularGrid ... Lebedev-50
Angular grid pruning method      GridPruning ... 3 (G Style)
Weight generation scheme         WeightScheme... Becke
Basis function cutoff            BFCut       ...    1.0000e-11
Integration weight cutoff        WCut        ...    1.0000e-14
Grids for H and He will be reduced by one unit

# of grid points (after initial pruning)     ...    846 (   0.0 sec)
# of grid points (after weights+screening)   ...    846 (   0.0 sec)
Grid point division into batches done        ...    0.0 sec
Reduced shell lists constructed in    0.0 sec

Total number of grid points                  ...      846
Total number of batches                      ...       14
Average number of points per batch           ...       60
Average number of grid points per atom       ...      846
Average number of shells per batch           ...    11.33 (87.18%)
Average number of basis functions per batch  ...    33.47 (90.45%)
Average number of large shells per batch     ...    10.93 (96.47%)
Average number of large basis fcns per batch ...    32.53 (97.21%)
Maximum spatial batch extension              ...  24.23, 29.68, 29.68 au
Average spatial batch extension              ...   8.37, 11.52, 12.64 au

Overlap Fitting                  UseSFitting ... on
Constructing numerical overlap ... done (      0.0 sec)
Inverting numerical overlap    ... done (      0.0 sec)
Obtaining analytic overlap     ... done (      0.0 sec)
Final contraction and storage  ... done (      0.0 sec)


General Integration Accuracy     IntAcc      ...  4.010
Radial Grid Type                 RadialGrid  ... Gauss-Chebyshev
Angular Grid (max. acc.)         AngularGrid ... Lebedev-110
Angular grid pruning method      GridPruning ... 3 (G Style)
Weight generation scheme         WeightScheme... Becke
Basis function cutoff            BFCut       ...    1.0000e-11
Integration weight cutoff        WCut        ...    1.0000e-14
Grids for H and He will be reduced by one unit

# of grid points (after initial pruning)     ...   1632 (   0.0 sec)
# of grid points (after weights+screening)   ...   1632 (   0.0 sec)
Grid point division into batches done        ...    0.0 sec
Reduced shell lists constructed in    0.0 sec

Total number of grid points                  ...     1632
Total number of batches                      ...       26
Average number of points per batch           ...       62
Average number of grid points per atom       ...     1632
Average number of shells per batch           ...    10.70 (82.34%)
Average number of basis functions per batch  ...    32.63 (88.19%)
Average number of large shells per batch     ...    10.26 (95.85%)
Average number of large basis fcns per batch ...    31.44 (96.37%)
Maximum spatial batch extension              ...  16.97, 31.36, 31.36 au
Average spatial batch extension              ...   8.61, 10.11, 11.40 au

Overlap Fitting                  UseSFitting ... on
Constructing numerical overlap ... done (      0.0 sec)
Inverting numerical overlap    ... done (      0.0 sec)
Obtaining analytic overlap     ... done (      0.0 sec)
Final contraction and storage  ... done (      0.0 sec)

Time for X-Grid setup             =    0.103 sec
--------------
SCF ITERATIONS
--------------
ITER       Energy         Delta-E        Max-DP      RMS-DP      [F,P]     Damp
               ***  Starting incremental Fock matrix formation  ***
  0   -341.1020320004   0.000000000000 0.00739765  0.00036855  0.0124040 0.7000
  1   -341.1023476939  -0.000315693492 0.00764984  0.00035898  0.0065648 0.7000
                               ***Turning on DIIS***
  2   -341.1025637414  -0.000216047543 0.01989607  0.00089713  0.0040874 0.0000
  3   -341.1029674074  -0.000403666003 0.00626439  0.00019293  0.0026428 0.0000
  4   -341.1029944541  -0.000027046747 0.00304702  0.00010166  0.0005935 0.0000
  5   -341.1029959215  -0.000001467345 0.00072293  0.00002854  0.0002328 0.0000
  6   -341.1029963802  -0.000000458694 0.00001673  0.00000054  0.0000056 0.0000
                            ***DIIS convergence achieved***

               *****************************************************
               *                     SUCCESS                       *
               *           SCF CONVERGED AFTER   7 CYCLES          *
               *****************************************************

Setting up the final grid:

General Integration Accuracy     IntAcc      ...  5.010
Radial Grid Type                 RadialGrid  ... Gauss-Chebyshev
Angular Grid (max. acc.)         AngularGrid ... Lebedev-434
Angular grid pruning method      GridPruning ... 3 (G Style)
Weight generation scheme         WeightScheme... Becke
Basis function cutoff            BFCut       ...    1.0000e-11
Integration weight cutoff        WCut        ...    1.0000e-14
Grids for H and He will be reduced by one unit

# of grid points (after initial pruning)     ...  11632 (   0.0 sec)
# of grid points (after weights+screening)   ...  11632 (   0.0 sec)
Grid point division into batches done        ...    0.1 sec
Reduced shell lists constructed in    0.1 sec

Total number of grid points                  ...    11632
Total number of batches                      ...      182
Average number of points per batch           ...       63
Average number of grid points per atom       ...    11632
Average number of shells per batch           ...     9.51 (73.18%)
Average number of basis functions per batch  ...    28.92 (78.17%)
Average number of large shells per batch     ...     8.87 (93.22%)
Average number of large basis fcns per batch ...    27.11 (93.73%)
Maximum spatial batch extension              ...  20.58, 20.58, 20.58 au
Average spatial batch extension              ...   4.71,  4.63,  4.67 au

Final grid set up in    0.1 sec
Final integration                            ... done (   0.1 sec)
Change in XC energy                          ...    -0.000054248
Integrated number of electrons               ...    14.999999651
Previous integrated no of electrons          ...    15.000000216

----------------
TOTAL SCF ENERGY
----------------

Total Energy       :         -341.10305063 Eh           -9281.88589 eV

Components:
Nuclear Repulsion  :            0.00000000 Eh               0.00000 eV
Electronic Energy  :         -341.10305063 Eh           -9281.88589 eV
One Electron Energy:         -471.56773109 Eh          -12832.01033 eV
Two Electron Energy:          130.46468046 Eh            3550.12444 eV

Virial components:
Potential Energy   :         -681.60024055 Eh          -18547.28547 eV
Kinetic Energy     :          340.49718992 Eh            9265.39958 eV
Virial Ratio       :            2.00177934


DFT components:
N(Alpha)           :        8.999999825560 electrons
N(Beta)            :        5.999999825196 electrons
N(Total)           :       14.999999650756 electrons
E(X)               :      -22.489983439515 Eh       
E(C)               :       -0.526085408918 Eh       
E(XC)              :      -23.016068848433 Eh       

---------------
SCF CONVERGENCE
---------------

  Last Energy change         ...   -2.9727e-09  Tolerance :   1.0000e-08
  Last MAX-Density change    ...    1.5115e-06  Tolerance :   1.0000e-07
  Last RMS-Density change    ...    4.6682e-08  Tolerance :   5.0000e-09
  Last DIIS Error            ...    4.5455e-07  Tolerance :   5.0000e-07

             **** THE GBW FILE WAS UPDATED (P.gbw) ****
             **** DENSITY FILE WAS UPDATED (P.scfp.tmp) ****
             **** ENERGY FILE WAS UPDATED (P.en.tmp) ****
----------------------
UHF SPIN CONTAMINATION
----------------------

Warning: in a DFT calculation there is little theoretical justification to 
         calculate <S**2> as in Hartree-Fock theory. We will do it anyways
         but you should keep in mind that the values have only limited relevance

Expectation value of <S**2>     :     3.750040
Ideal value S*(S+1) for S=1.5   :     3.750000
Deviation                       :     0.000040

----------------
ORBITAL ENERGIES
----------------
                 SPIN UP ORBITALS
  NO   OCC          E(Eh)            E(eV) 
   0   1.0000     -76.345387     -2077.4636 
   1   1.0000      -6.342733      -172.5945 
   2   1.0000      -4.560644      -124.1014 
   3   1.0000      -4.560644      -124.1014 
   4   1.0000      -4.560644      -124.1014 
   5   1.0000      -0.539039       -14.6680 
   6   1.0000      -0.229357        -6.2411 
   7   1.0000      -0.229357        -6.2411 
   8   1.0000      -0.229357        -6.2411 
   9   0.0000       0.196776         5.3545 
  10   0.0000       0.196776         5.3545 
  11   0.0000       0.196776         5.3545 
  12   0.0000       0.204113         5.5542 
  13   0.0000       0.204113         5.5542 
  14   0.0000       0.204113         5.5542 
  15   0.0000       0.204113         5.5542 
  16   0.0000       0.204113         5.5542 
  17   0.0000       0.237989         6.4760 
  18   0.0000       1.114505        30.3272 
  19   0.0000       1.114505        30.3272 
  20   0.0000       1.114505        30.3272 
  21   0.0000       1.114505        30.3272 
  22   0.0000       1.114505        30.3272 
  23   0.0000       1.226470        33.3740 
  24   0.0000       1.226470        33.3740 
  25   0.0000       1.226470        33.3740 
  26   0.0000       1.226470        33.3740 
  27   0.0000       1.226470        33.3740 
  28   0.0000       1.226470        33.3740 
  29   0.0000       1.226470        33.3740 
  30   0.0000       1.372785        37.3554 
  31   0.0000       1.372785        37.3554 
  32   0.0000       1.372785        37.3554 
  33   0.0000       7.009485       190.7378 
  34   0.0000       7.009485       190.7378 
  35   0.0000       7.009485       190.7378 
  36   0.0000      12.447024       338.7007 

                 SPIN DOWN ORBITALS
  NO   OCC          E(Eh)            E(eV) 
   0   1.0000     -76.334009     -2077.1540 
   1   1.0000      -6.331359      -172.2850 
   2   1.0000      -4.545132      -123.6793 
   3   1.0000      -4.545132      -123.6793 
   4   1.0000      -4.545132      -123.6793 
   5   1.0000      -0.439152       -11.9499 
   6   0.0000      -0.135216        -3.6794 
   7   0.0000      -0.135216        -3.6794 
   8   0.0000      -0.135216        -3.6794 
   9   0.0000       0.254489         6.9250 
  10   0.0000       0.254489         6.9250 
  11   0.0000       0.254489         6.9250 
  12   0.0000       0.299446         8.1483 
  13   0.0000       0.299446         8.1483 
  14   0.0000       0.299446         8.1483 
  15   0.0000       0.299446         8.1483 
  16   0.0000       0.299446         8.1483 
  17   0.0000       0.299704         8.1554 
  18   0.0000       1.180179        32.1143 
  19   0.0000       1.180179        32.1143 
  20   0.0000       1.180179        32.1143 
  21   0.0000       1.180179        32.1143 
  22   0.0000       1.180179        32.1143 
  23   0.0000       1.340400        36.4741 
  24   0.0000       1.340400        36.4741 
  25   0.0000       1.340400        36.4741 
  26   0.0000       1.340400        36.4741 
  27   0.0000       1.340400        36.4741 
  28   0.0000       1.340400        36.4741 
  29   0.0000       1.340400        36.4741 
  30   0.0000       1.445066        39.3222 
  31   0.0000       1.445066        39.3222 
  32   0.0000       1.445066        39.3222 
  33   0.0000       7.051976       191.8940 
  34   0.0000       7.051976       191.8940 
  35   0.0000       7.051976       191.8940 
  36   0.0000      12.476721       339.5088 

                    ********************************
                    * MULLIKEN POPULATION ANALYSIS *
                    ********************************

--------------------------------------------
MULLIKEN ATOMIC CHARGES AND SPIN POPULATIONS
--------------------------------------------
   0 P :   -0.000000    3.000000
Sum of atomic charges         :   -0.0000000
Sum of atomic spin populations:    3.0000000

-----------------------------------------------------
MULLIKEN REDUCED ORBITAL CHARGES AND SPIN POPULATIONS
-----------------------------------------------------
CHARGE
  0 P s       :     6.000000  s :     6.000000
      pz      :     3.000000  p :     9.000000
      px      :     3.000000
      py      :     3.000000
      dz2     :     0.000000  d :     0.000000
      dxz     :     0.000000
      dyz     :     0.000000
      dx2y2   :     0.000000
      dxy     :     0.000000
      f0      :     0.000000  f :     0.000000
      f+1     :     0.000000
      f-1     :     0.000000
      f+2     :     0.000000
      f-2     :     0.000000
      f+3     :     0.000000
      f-3     :     0.000000

SPIN
  0 P s       :     0.000000  s :     0.000000
      pz      :     1.000000  p :     3.000000
      px      :     1.000000
      py      :     1.000000
      dz2     :     0.000000  d :     0.000000
      dxz     :     0.000000
      dyz     :     0.000000
      dx2y2   :     0.000000
      dxy     :    -0.000000
      f0      :     0.000000  f :     0.000000
      f+1     :    -0.000000
      f-1     :     0.000000
      f+2     :     0.000000
      f-2     :     0.000000
      f+3     :     0.000000
      f-3     :     0.000000


                     *******************************
                     * LOEWDIN POPULATION ANALYSIS *
                     *******************************

-------------------------------------------
LOEWDIN ATOMIC CHARGES AND SPIN POPULATIONS
-------------------------------------------
   0 P :   -0.000000    3.000000

----------------------------------------------------
LOEWDIN REDUCED ORBITAL CHARGES AND SPIN POPULATIONS
----------------------------------------------------
CHARGE
  0 P s       :     6.000000  s :     6.000000
      pz      :     3.000000  p :     9.000000
      px      :     3.000000
      py      :     3.000000
      dz2     :     0.000000  d :     0.000000
      dxz     :     0.000000
      dyz     :     0.000000
      dx2y2   :     0.000000
      dxy     :     0.000000
      f0      :     0.000000  f :     0.000000
      f+1     :     0.000000
      f-1     :     0.000000
      f+2     :     0.000000
      f-2     :     0.000000
      f+3     :     0.000000
      f-3     :     0.000000

SPIN
  0 P s       :     0.000000  s :     0.000000
      pz      :     1.000000  p :     3.000000
      px      :     1.000000
      py      :     1.000000
      dz2     :     0.000000  d :     0.000000
      dxz     :     0.000000
      dyz     :     0.000000
      dx2y2   :     0.000000
      dxy     :    -0.000000
      f0      :     0.000000  f :     0.000000
      f+1     :    -0.000000
      f-1     :     0.000000
      f+2     :     0.000000
      f-2     :     0.000000
      f+3     :     0.000000
      f-3     :     0.000000


                      *****************************
                      * MAYER POPULATION ANALYSIS *
                      *****************************

  NA   - Mulliken gross atomic population
  ZA   - Total nuclear charge
  QA   - Mulliken gross atomic charge
  VA   - Mayer's total valence
  BVA  - Mayer's bonded valence
  FA   - Mayer's free valence

  ATOM       NA         ZA         QA         VA         BVA        FA
  0 P     15.0000    15.0000    -0.0000     3.0001     0.0000     3.0001

  Mayer bond orders larger than 0.1


-------
TIMINGS
-------

Total SCF time: 0 days 0 hours 0 min 1 sec 

Total time                  ....       1.453 sec
Sum of individual times     ....       1.447 sec  ( 99.6%)

Fock matrix formation       ....       1.015 sec  ( 69.9%)
  Split-RI-J                ....       0.636 sec  ( 62.6% of F)
  XC integration            ....       0.374 sec  ( 36.8% of F)
    Basis function eval.    ....       0.157 sec  ( 42.0% of XC)
    Density eval.           ....       0.056 sec  ( 14.9% of XC)
    XC-Functional eval.     ....       0.060 sec  ( 16.0% of XC)
    XC-Potential eval.      ....       0.087 sec  ( 23.2% of XC)
Diagonalization             ....       0.010 sec  (  0.7%)
Density matrix formation    ....       0.000 sec  (  0.0%)
Population analysis         ....       0.001 sec  (  0.1%)
Initial guess               ....       0.126 sec  (  8.7%)
Orbital Transformation      ....       0.000 sec  (  0.0%)
Orbital Orthonormalization  ....       0.000 sec  (  0.0%)
DIIS solution               ....       0.001 sec  (  0.1%)
Grid generation             ....       0.293 sec  ( 20.2%)


-------------------------------------------------------------------------------
                          DFT DISPERSION CORRECTION                            
                                                                               
                              DFTD3 V3.1  Rev 1                                
                          USING Becke-Johnson damping                          
-------------------------------------------------------------------------------
The PBE functional is recognized
Active option DFTDOPT                   ...         4   

molecular C6(AA) [au] = 191.478015 


            DFT-D V3
 parameters
 s6 scaling factor         :     1.0000 
 a1 scaling factor         :     0.4289 
 s8 scaling factor         :     0.7875 
 a2 scaling factor         :     4.4407 
 ad hoc parameters k1-k3   :    16.0000     1.3333    -4.0000 

 Edisp/kcal,au: -0.000000000000  -0.000000000000 
 E6   /kcal   :  -0.000000000 
 E8   /kcal   :  -0.000000000 
 % E8         :           nan 

-------------------------   ----------------
Dispersion correction           -0.000000000
-------------------------   ----------------


-------------------------   --------------------
FINAL SINGLE POINT ENERGY      -341.103050630790
-------------------------   --------------------


                            ***************************************
                            *     ORCA property calculations      *
                            ***************************************

                                    ---------------------
                                    Active property flags
                                    ---------------------
   (+) Dipole Moment


------------------------------------------------------------------------------
                       ORCA ELECTRIC PROPERTIES CALCULATION
------------------------------------------------------------------------------

Dipole Moment Calculation                       ... on
Quadrupole Moment Calculation                   ... off
Polarizability Calculation                      ... off
GBWName                                         ... P.gbw
Electron density file                           ... P.scfp.tmp

-------------
DIPOLE MOMENT
-------------
                                X             Y             Z
Electronic contribution:      0.00000      -0.00000       0.00000
Nuclear contribution   :      0.00000       0.00000       0.00000
                        -----------------------------------------
Total Dipole Moment    :      0.00000      -0.00000       0.00000
                        -----------------------------------------
Magnitude (a.u.)       :      0.00000
Magnitude (Debye)      :      0.00000


Timings for individual modules:

Sum of individual times         ...        1.635 sec (=   0.027 min)
GTO integral calculation        ...        0.164 sec (=   0.003 min)  10.0 %
SCF iterations                  ...        1.471 sec (=   0.025 min)  90.0 %
                             ****ORCA TERMINATED NORMALLY****
TOTAL RUN TIME: 0 days 0 hours 0 minutes 1 seconds 848 msec
