
                                 *****************
                                 * O   R   C   A *
                                 *****************

           --- An Ab Initio, DFT and Semiempirical electronic structure package ---

                  #######################################################
                  #                        -***-                        #
                  #  Department of molecular theory and spectroscopy    #
                  #              Directorship: Frank Neese              #
                  # Max Planck Institute for Chemical Energy Conversion #
                  #                  D-45470 Muelheim/Ruhr              #
                  #                       Germany                       #
                  #                                                     #
                  #                  All rights reserved                #
                  #                        -***-                        #
                  #######################################################


                         Program Version 4.0.0.2 - RELEASE -


 With contributions from (in alphabetic order):
   Daniel Aravena         : Magnetic Properties
   Michael Atanasov       : Ab Initio Ligand Field Theory
   Ute Becker             : Parallelization
   Martin Brehm           : Molecular dynamics
   Dmytro Bykov           : SCF Hessian
   Vijay G. Chilkuri      : MRCI spin determinant printing
   Dipayan Datta          : RHF DLPNO-CCSD density
   Achintya Kumar Dutta   : EOM-CC, STEOM-CC
   Dmitry Ganyushin       : Spin-Orbit,Spin-Spin,Magnetic field MRCI
   Yang Guo               : DLPNO-NEVPT2, CIM, IAO-localization
   Andreas Hansen         : Spin unrestricted coupled pair/coupled cluster methods
   Lee Huntington         : MR-EOM, pCC
   Robert Izsak           : Overlap fitted RIJCOSX, COSX-SCS-MP3, EOM
   Christian Kollmar      : KDIIS, OOCD, Brueckner-CCSD(T), CCSD density
   Simone Kossmann        : Meta GGA functionals, TD-DFT gradient, OOMP2, MP2 Hessian
   Martin Krupicka        : AUTO-CI
   Dagmar Lenk            : GEPOL surface
   Dimitrios Liakos       : Extrapolation schemes; parallel MDCI
   Dimitrios Manganas     : ROCIS; embedding schemes
   Dimitrios Pantazis     : SARC Basis sets
   Taras Petrenko         : DFT Hessian,TD-DFT gradient, ASA, ECA, R-Raman, ABS, FL, XAS/XES, NRVS
   Peter Pinski           : DLPNO-MP2
   Christoph Reimann      : Effective Core Potentials
   Marius Retegan         : Local ZFS, SOC
   Christoph Riplinger    : Optimizer, TS searches, QM/MM, DLPNO-CCSD(T), (RO)-DLPNO pert. Triples
   Tobias Risthaus        : Range-separated hybrids, TD-DFT gradient, RPA, STAB
   Michael Roemelt        : Restricted open shell CIS
   Masaaki Saitow         : Open-shell DLPNO
   Barbara Sandhoefer     : DKH picture change effects
   Kantharuban Sivalingam : CASSCF convergence, NEVPT2, FIC-MRCI
   Georgi Stoychev        : AutoAux
   Boris Wezisla          : Elementary symmetry handling
   Frank Wennmohs         : Technical directorship


 We gratefully acknowledge several colleagues who have allowed us to
 interface, adapt or use parts of their codes:
   Stefan Grimme, W. Hujo, H. Kruse,             : VdW corrections, initial TS optimization,
                  C. Bannwarth                     DFT functionals, gCP, sTDA/sTD-DF
   Ed Valeev                                     : LibInt (2-el integral package), F12 methods
   Garnet Chan, S. Sharma, J. Yang, R. Olivares  : DMRG
   Ulf Ekstrom                                   : XCFun DFT Library
   Mihaly Kallay                                 : mrcc  (arbitrary order and MRCC methods)
   Jiri Pittner, Ondrej Demel                    : Mk-CCSD
   Frank Weinhold                                : gennbo (NPA and NBO analysis)
   Christopher J. Cramer and Donald G. Truhlar   : smd solvation model


 Your calculation uses the libint2 library for the computation of 2-el integrals
 For citations please refer to: http://libint.valeyev.net

 This ORCA versions uses:
   CBLAS   interface :  Fast vector & matrix operations
   LAPACKE interface :  Fast linear algebra routines
   SCALAPACK package :  Parallel linear algebra routines


Your calculation utilizes the basis: cc-pVTZ 
       H, B-Ne : Obtained from the ccRepo (grant-hill.group.shef.ac.uk/ccrepo) Feb. 2017
                 T. H. Dunning, Jr., J. Chem. Phys. 90, 1007 (1989)
            He : Obtained from the ccRepo (grant-hill.group.shef.ac.uk/ccrepo) Feb. 2017
                 D. E. Woon, T. H. Dunning, Jr., J. Chem. Phys. 100, 2975 (1994)
  Li-Be, Na-Mg : Obtained from the ccRepo (grant-hill.group.shef.ac.uk/ccrepo) Feb. 2017
                 B. P. Prascher, D. E. Woon, K. A. Peterson, T. H. Dunning, Jr., A. K. Wilson, Theor. Chem. Acc. 128, 69 (2011)
         Al-Ar : Obtained from the ccRepo (grant-hill.group.shef.ac.uk/ccrepo) Feb. 2017
                 D. E. Woon, T. H. Dunning, Jr., J. Chem. Phys. 98, 1358 (1993)
            Ca : Obtained from the Peterson Research Group Website (tyr0.chem.wsu.edu/~kipeters) Feb. 2017
                 J. Koput, K. A. Peterson, J. Phys. Chem. 106, 9595 (2002)
         Sc-Zn : Obtained from the ccRepo (grant-hill.group.shef.ac.uk/ccrepo) Feb. 2017
                 N. B. Balabanov, K. A. Peterson, J. Chem. Phys. 123, 064107 (2005)
                 N. B. Balabanov, K. A. Peterson, J. Chem. Phys. 125, 074110 (2006)
         Ga-Kr : Obtained from the ccRepo (grant-hill.group.shef.ac.uk/ccrepo) Feb. 2017
                 A. K. Wilson, D. E. Woon, K. A. Peterson, T. H. Dunning, Jr., J. Chem. Phys. 110, 7667 (1999)
             Y : Obtained from the ccRepo (grant-hill.group.shef.ac.uk/ccrepo) Feb. 2017
                 K. A. Peterson, D. Figgen, M. Dolg, H. Stoll, J. Chem. Phys. 126, 124101 (2007)
        Ag, Au : Obtained from the Peterson Research Group Website (tyr0.chem.wsu.edu/~kipeters) Feb. 2017
                 K. A. Peterson, C. Puzzarini, Theor. Chem. Acc. 114, 283 (2005)

Your calculation utilizes the auxiliary basis: def2/J
   F. Weigend, Phys. Chem. Chem. Phys. 8, 1057 (2006).

Your calculation utilizes the auxiliary basis: cc-pVTZ/C 
  Obtained from the EMSL Basis Set Exchange (bse.pnl.gov) Feb. 2017
  H-He, B-F, Al-Ar, Ga-Kr : F. Weigend, A. Kohn, C. Hattig, J. Chem. Phys. 116, 3175 (2002)
             Li-Be, Na-Mg : C. Haettig, Phys. Chem. Chem. Phys. 7, 59 (2005)
                       Ne : C. Haettig, Phys. Chem. Chem. Phys. 7, 59 (2005)
                            F. Weigend, A. Kohn, C. Hattig, J. Chem. Phys. 116, 3175 (2002)
                    Sc-Zn : J. G. Hill, J. A. Platts, J. Chem. Phys. 128, 044104 (2008)

================================================================================
                                        WARNINGS
                       Please study these warnings very carefully!
================================================================================

Warning: TCutStore was < 0. Adjusted to Thresh (uncritical)

WARNING: your system is open-shell and RHF/RKS was chosen
  ===> : WILL SWITCH to UHF/UKS


WARNING: Post HF methods need fully converged wavefunctions
  ===> : Setting SCFConvForced true
         You can overwrite this default with %scf ConvForced false 


INFO   : the flag for use of LIBINT has been found!

================================================================================
                                       INPUT FILE
================================================================================
NAME = O.inp
|  1> ! RI-MP2 RIJCOSX cc-pVTZ cc-pVTZ/C def2/J TIGHTSCF
|  2> * xyz 0 3 
|  3> O  0.0  0.0  0.0
|  4> *
|  5> 
|  6>                          ****END OF INPUT****
================================================================================

                       ****************************
                       * Single Point Calculation *
                       ****************************

---------------------------------
CARTESIAN COORDINATES (ANGSTROEM)
---------------------------------
  O      0.000000    0.000000    0.000000

----------------------------
CARTESIAN COORDINATES (A.U.)
----------------------------
  NO LB      ZA    FRAG     MASS         X           Y           Z
   0 O     8.0000    0    15.999    0.000000    0.000000    0.000000

--------------------------------
INTERNAL COORDINATES (ANGSTROEM)
--------------------------------
 O      0   0   0     0.000000000000     0.00000000     0.00000000

---------------------------
INTERNAL COORDINATES (A.U.)
---------------------------
 O      0   0   0     0.000000000000     0.00000000     0.00000000

---------------------
BASIS SET INFORMATION
---------------------
There are 1 groups of distinct atoms

 Group   1 Type O   : 18s5p2d1f contracted to 4s3p2d1f pattern {8811/311/11/1}

Atom   0O    basis set group =>   1
-------------------------------
AUXILIARY BASIS SET INFORMATION
-------------------------------
There are 1 groups of distinct atoms

 Group   1 Type O   : 12s5p4d2f1g contracted to 6s4p3d1f1g pattern {711111/2111/211/2/1}

Atom   0O    basis set group =>   1
------------------------------------------------------------------------------
                           ORCA GTO INTEGRAL CALCULATION
                           -- RI-GTO INTEGRALS CHOSEN --
------------------------------------------------------------------------------

                         BASIS SET STATISTICS AND STARTUP INFO

Gaussian basis set:
 # of primitive gaussian shells          ...   26
 # of primitive gaussian functions       ...   50
 # of contracted shells                  ...   10
 # of contracted basis functions         ...   30
 Highest angular momentum                ...    3
 Maximum contraction depth               ...    8
Auxiliary gaussian basis set:
 # of primitive gaussian shells          ...   24
 # of primitive gaussian functions       ...   70
 # of contracted shells                  ...   15
 # of contracted aux-basis functions     ...   49
 Highest angular momentum                ...    4
 Maximum contraction depth               ...    7
Ratio of auxiliary to basis functions    ...  1.63
Integral package used                  ... LIBINT
 One Electron integrals                  ... done
 Ordering auxiliary basis shells         ... done
 Integral threshhold             Thresh  ...  2.500e-11
 Primitive cut-off               TCut    ...  2.500e-12
 Pre-screening matrix                    ... done
 Shell pair data                         ... 
 Ordering of the shell pairs             ... done (   0.000 sec) 55 of 55 pairs
 Determination of significant pairs      ... done (   0.000 sec)
 Creation of shell pair data             ... done (   0.000 sec)
 Storage of shell pair data              ... done (   0.000 sec)
 Shell pair data done in (   0.000 sec)
 Computing two index integrals           ... done
 Cholesky decomposition of the V-matrix  ... done


Timings:
 Total evaluation time                   ...   0.140 sec (  0.002 min)
 One electron matrix time                ...   0.004 sec (  0.000 min) =  2.9%
 Schwartz matrix evaluation time         ...   0.120 sec (  0.002 min) = 85.3%
 Two index repulsion integral time       ...   0.000 sec (  0.000 min) =  0.1%
 Cholesky decomposition of V             ...   0.000 sec (  0.000 min) =  0.1%
 Three index repulsion integral time     ...   0.000 sec (  0.000 min) =  0.0%

-------------------------------------------------------------------------------
                                 ORCA SCF
-------------------------------------------------------------------------------

------------
SCF SETTINGS
------------
Hamiltonian:
 Ab initio Hamiltonian  Method          .... Hartree-Fock(GTOs)
 RI-approximation to the Coulomb term is turned on
   Number of auxiliary basis functions  .... 49
   RIJ-COSX (HFX calculated with COS-X)).... on


General Settings:
 Integral files         IntName         .... O
 Hartree-Fock type      HFTyp           .... UHF
 Total Charge           Charge          ....    0
 Multiplicity           Mult            ....    3
 Number of Electrons    NEL             ....    8
 Basis Dimension        Dim             ....   30
 Nuclear Repulsion      ENuc            ....      0.0000000000 Eh

Convergence Acceleration:
 DIIS                   CNVDIIS         .... on
   Start iteration      DIISMaxIt       ....    12
   Startup error        DIISStart       ....  0.200000
   # of expansion vecs  DIISMaxEq       ....     5
   Bias factor          DIISBfac        ....   1.050
   Max. coefficient     DIISMaxC        ....  10.000
 Newton-Raphson         CNVNR           .... off
 SOSCF                  CNVSOSCF        .... off
 Level Shifting         CNVShift        .... on
   Level shift para.    LevelShift      ....    0.2500
   Turn off err/grad.   ShiftErr        ....    0.0010
 Zerner damping         CNVZerner       .... off
 Static damping         CNVDamp         .... on
   Fraction old density DampFac         ....    0.7000
   Max. Damping (<1)    DampMax         ....    0.9800
   Min. Damping (>=0)   DampMin         ....    0.0000
   Turn off err/grad.   DampErr         ....    0.1000
 Fernandez-Rico         CNVRico         .... off

SCF Procedure:
 Maximum # iterations   MaxIter         ....   125
 SCF integral mode      SCFMode         .... Direct
   Integral package                     .... LIBINT
 Reset frequeny         DirectResetFreq ....    20
 Integral Threshold     Thresh          ....  2.500e-11 Eh
 Primitive CutOff       TCut            ....  2.500e-12 Eh

Convergence Tolerance:
 Convergence Check Mode ConvCheckMode   .... Total+1el-Energy
 Convergence forced     ConvForced      .... 1
 Energy Change          TolE            ....  1.000e-08 Eh
 1-El. energy change                    ....  1.000e-05 Eh
 DIIS Error             TolErr          ....  5.000e-07


Diagonalization of the overlap matrix:
Smallest eigenvalue                        ... 4.243e-02
Time for diagonalization                   ...    0.001 sec
Threshold for overlap eigenvalues          ... 1.000e-08
Number of eigenvalues below threshold      ... 0
Time for construction of square roots      ...    0.000 sec
Total time needed                          ...    0.001 sec

-------------------
DFT GRID GENERATION
-------------------

General Integration Accuracy     IntAcc      ...  4.340
Radial Grid Type                 RadialGrid  ... Gauss-Chebyshev
Angular Grid (max. acc.)         AngularGrid ... Lebedev-110
Angular grid pruning method      GridPruning ... 3 (G Style)
Weight generation scheme         WeightScheme... Becke
Basis function cutoff            BFCut       ...    1.0000e-11
Integration weight cutoff        WCut        ...    1.0000e-14
Grids for H and He will be reduced by one unit

# of grid points (after initial pruning)     ...   1716 (   0.0 sec)
# of grid points (after weights+screening)   ...   1716 (   0.0 sec)
Grid point division into batches done        ...    0.0 sec
Reduced shell lists constructed in    0.0 sec

Total number of grid points                  ...     1716
Total number of batches                      ...       27
Average number of points per batch           ...       63
Average number of grid points per atom       ...     1716
Average number of shells per batch           ...     9.29 (92.86%)
Average number of basis functions per batch  ...    27.71 (92.38%)
Average number of large shells per batch     ...     8.79 (94.62%)
Average number of large basis fcns per batch ...    26.36 (95.10%)
Maximum spatial batch extension              ...  13.89, 25.65, 25.65 au
Average spatial batch extension              ...   6.68,  7.87,  8.94 au

Time for grid setup =    0.009 sec

------------------------------
INITIAL GUESS: MODEL POTENTIAL
------------------------------
Loading Hartree-Fock densities                     ... done
Calculating cut-offs                               ... done
Setting up the integral package                    ... done
Initializing the effective Hamiltonian             ... done
Starting the Coulomb interaction                   ... done (   0.0 sec)
Reading the grid                                   ... done
Mapping shells                                     ... done
Starting the XC term evaluation                    ... done (   0.0 sec)
Transforming the Hamiltonian                       ... done (   0.0 sec)
Diagonalizing the Hamiltonian                      ... done (   0.0 sec)
Back transforming the eigenvectors                 ... done (   0.0 sec)
Now organizing SCF variables                       ... done
                      ------------------
                      INITIAL GUESS DONE (   0.1 sec)
                      ------------------
--------------------
COSX GRID GENERATION
--------------------

General Integration Accuracy     IntAcc      ...  3.340
Radial Grid Type                 RadialGrid  ... Gauss-Chebyshev
Angular Grid (max. acc.)         AngularGrid ... Lebedev-50
Angular grid pruning method      GridPruning ... 3 (G Style)
Weight generation scheme         WeightScheme... Becke
Basis function cutoff            BFCut       ...    1.0000e-11
Integration weight cutoff        WCut        ...    1.0000e-14
Grids for H and He will be reduced by one unit

# of grid points (after initial pruning)     ...    580 (   0.0 sec)
# of grid points (after weights+screening)   ...    580 (   0.0 sec)
Grid point division into batches done        ...    0.0 sec
Reduced shell lists constructed in    0.0 sec

Total number of grid points                  ...      580
Total number of batches                      ...       10
Average number of points per batch           ...       58
Average number of grid points per atom       ...      580
Average number of shells per batch           ...     9.09 (90.91%)
Average number of basis functions per batch  ...    27.27 (90.91%)
Average number of large shells per batch     ...     9.09 (100.00%)
Average number of large basis fcns per batch ...    27.27 (100.00%)
Maximum spatial batch extension              ...  16.92, 20.72, 20.72 au
Average spatial batch extension              ...   7.07,  7.83, 11.47 au

Overlap Fitting                  UseSFitting ... on
Constructing numerical overlap ... done (      0.0 sec)
Inverting numerical overlap    ... done (      0.0 sec)
Obtaining analytic overlap     ... done (      0.0 sec)
Final contraction and storage  ... done (      0.0 sec)


General Integration Accuracy     IntAcc      ...  3.670
Radial Grid Type                 RadialGrid  ... Gauss-Chebyshev
Angular Grid (max. acc.)         AngularGrid ... Lebedev-50
Angular grid pruning method      GridPruning ... 3 (G Style)
Weight generation scheme         WeightScheme... Becke
Basis function cutoff            BFCut       ...    1.0000e-11
Integration weight cutoff        WCut        ...    1.0000e-14
Grids for H and He will be reduced by one unit

# of grid points (after initial pruning)     ...    730 (   0.0 sec)
# of grid points (after weights+screening)   ...    730 (   0.0 sec)
Grid point division into batches done        ...    0.0 sec
Reduced shell lists constructed in    0.0 sec

Total number of grid points                  ...      730
Total number of batches                      ...       12
Average number of points per batch           ...       60
Average number of grid points per atom       ...      730
Average number of shells per batch           ...     9.23 (92.31%)
Average number of basis functions per batch  ...    27.69 (92.31%)
Average number of large shells per batch     ...     9.23 (100.00%)
Average number of large basis fcns per batch ...    27.69 (100.00%)
Maximum spatial batch extension              ...  18.51, 22.67, 22.67 au
Average spatial batch extension              ...   6.99, 10.03, 10.86 au

Overlap Fitting                  UseSFitting ... on
Constructing numerical overlap ... done (      0.0 sec)
Inverting numerical overlap    ... done (      0.0 sec)
Obtaining analytic overlap     ... done (      0.0 sec)
Final contraction and storage  ... done (      0.0 sec)


General Integration Accuracy     IntAcc      ...  4.010
Radial Grid Type                 RadialGrid  ... Gauss-Chebyshev
Angular Grid (max. acc.)         AngularGrid ... Lebedev-110
Angular grid pruning method      GridPruning ... 3 (G Style)
Weight generation scheme         WeightScheme... Becke
Basis function cutoff            BFCut       ...    1.0000e-11
Integration weight cutoff        WCut        ...    1.0000e-14
Grids for H and He will be reduced by one unit

# of grid points (after initial pruning)     ...   1422 (   0.0 sec)
# of grid points (after weights+screening)   ...   1422 (   0.0 sec)
Grid point division into batches done        ...    0.0 sec
Reduced shell lists constructed in    0.0 sec

Total number of grid points                  ...     1422
Total number of batches                      ...       23
Average number of points per batch           ...       61
Average number of grid points per atom       ...     1422
Average number of shells per batch           ...     9.33 (93.33%)
Average number of basis functions per batch  ...    28.00 (93.33%)
Average number of large shells per batch     ...     8.83 (94.64%)
Average number of large basis fcns per batch ...    26.33 (94.05%)
Maximum spatial batch extension              ...  14.65, 24.28, 24.28 au
Average spatial batch extension              ...   7.56,  8.70,  9.62 au

Overlap Fitting                  UseSFitting ... on
Constructing numerical overlap ... done (      0.0 sec)
Inverting numerical overlap    ... done (      0.0 sec)
Obtaining analytic overlap     ... done (      0.0 sec)
Final contraction and storage  ... done (      0.0 sec)

Time for X-Grid setup             =    0.099 sec
--------------
SCF ITERATIONS
--------------
ITER       Energy         Delta-E        Max-DP      RMS-DP      [F,P]     Damp
               ***  Starting incremental Fock matrix formation  ***
  0    -74.7929212780   0.000000000000 0.01110516  0.00075966  0.2054870 0.7000
  1    -74.7969278736  -0.004006595628 0.00947235  0.00063144  0.1469140 0.7000
                               ***Turning on DIIS***
  2    -74.8000382268  -0.003110353211 0.00738160  0.00048474  0.1046390 0.7000
  3    -74.7740187786   0.026019448227 0.02164482  0.00138992  0.0745827 0.0000
  4    -74.8070309363  -0.033012157759 0.00442265  0.00027943  0.0078744 0.0000
  5    -74.8096691102  -0.002638173885 0.00412540  0.00021406  0.0034576 0.0000
  6    -74.8089740174   0.000695092823 0.00195728  0.00008655  0.0012799 0.0000
  7    -74.8092897251  -0.000315707669 0.00067137  0.00002689  0.0001915 0.0000
               *** Restarting incremental Fock matrix formation ***
                                   *** Resetting DIIS ***
  8    -74.8096603962  -0.000370671118 0.00670437  0.00025779  0.0524102 0.0000
  9    -74.8115706738  -0.001910277604 0.00236615  0.00009156  0.0095141 0.0000
 10    -74.8112943464   0.000276327363 0.00048449  0.00002521  0.0013895 0.0000
 11    -74.8113506234  -0.000056276932 0.00022088  0.00001102  0.0001821 0.0000
 12    -74.8113433159   0.000007307501 0.00008540  0.00000407  0.0000163 0.0000
 13    -74.8113480025  -0.000004686660 0.00004085  0.00000186  0.0000042 0.0000
 14    -74.8113478001   0.000000202371 0.00002569  0.00000118  0.0000047 0.0000
 15    -74.8113469945   0.000000805598 0.00002491  0.00000113  0.0000027 0.0000
                            ***DIIS convergence achieved***

               *****************************************************
               *                     SUCCESS                       *
               *           SCF CONVERGED AFTER  16 CYCLES          *
               *****************************************************

Old exchange energy                            =     -8.220025802 Eh
New exchange energy                            =     -8.220463978 Eh
Exchange energy change after final integration =     -0.000438176 Eh
Total energy after final integration           =    -74.811785631 Eh
Final COS-X integration done in                =     0.082 sec

----------------
TOTAL SCF ENERGY
----------------

Total Energy       :          -74.81178563 Eh           -2035.73218 eV

Components:
Nuclear Repulsion  :            0.00000000 Eh               0.00000 eV
Electronic Energy  :          -74.81178563 Eh           -2035.73218 eV
One Electron Energy:         -103.26676815 Eh           -2810.03162 eV
Two Electron Energy:           28.45498252 Eh             774.29944 eV

Virial components:
Potential Energy   :         -149.63112800 Eh           -4071.66999 eV
Kinetic Energy     :           74.81934236 Eh            2035.93781 eV
Virial Ratio       :            1.99989900


---------------
SCF CONVERGENCE
---------------

  Last Energy change         ...   -4.6040e-07  Tolerance :   1.0000e-08
  Last MAX-Density change    ...    0.0000e+00  Tolerance :   1.0000e-07
  Last RMS-Density change    ...    0.0000e+00  Tolerance :   5.0000e-09
  Last DIIS Error            ...    5.4221e-07  Tolerance :   5.0000e-07

             **** THE GBW FILE WAS UPDATED (O.gbw) ****
             **** DENSITY FILE WAS UPDATED (O.scfp.tmp) ****
             **** ENERGY FILE WAS UPDATED (O.en.tmp) ****
----------------------
UHF SPIN CONTAMINATION
----------------------

Expectation value of <S**2>     :     2.007201
Ideal value S*(S+1) for S=1.0   :     2.000000
Deviation                       :     0.007201

----------------
ORBITAL ENERGIES
----------------
                 SPIN UP ORBITALS
  NO   OCC          E(Eh)            E(eV) 
   0   1.0000     -20.703094      -563.3598 
   1   1.0000      -1.414311       -38.4854 
   2   1.0000      -0.706055       -19.2127 
   3   1.0000      -0.706055       -19.2127 
   4   1.0000      -0.607056       -16.5188 
   5   0.0000       0.697399        18.9772 
   6   0.0000       0.697399        18.9772 
   7   0.0000       0.742368        20.2009 
   8   0.0000       0.885909        24.1068 
   9   0.0000       1.611330        43.8465 
  10   0.0000       1.611331        43.8465 
  11   0.0000       1.660584        45.1868 
  12   0.0000       1.660584        45.1868 
  13   0.0000       1.678159        45.6650 
  14   0.0000       3.936118       107.1072 
  15   0.0000       3.936118       107.1072 
  16   0.0000       4.011367       109.1548 
  17   0.0000       5.408682       147.1777 
  18   0.0000       5.408682       147.1777 
  19   0.0000       5.456999       148.4925 
  20   0.0000       5.456999       148.4925 
  21   0.0000       5.486597       149.2979 
  22   0.0000       5.486597       149.2979 
  23   0.0000       5.496586       149.5697 
  24   0.0000       6.513767       177.2486 
  25   0.0000       6.513807       177.2497 
  26   0.0000       6.582605       179.1218 
  27   0.0000       6.582605       179.1218 
  28   0.0000       6.605821       179.7535 
  29   0.0000       7.483380       203.6331 

                 SPIN DOWN ORBITALS
  NO   OCC          E(Eh)            E(eV) 
   0   1.0000     -20.625328      -561.2437 
   1   1.0000      -1.074020       -29.2256 
   2   1.0000      -0.520010       -14.1502 
   3   0.0000       0.112104         3.0505 
   4   0.0000       0.112104         3.0505 
   5   0.0000       0.772583        21.0230 
   6   0.0000       0.871624        23.7181 
   7   0.0000       0.871624        23.7181 
   8   0.0000       0.968063        26.3423 
   9   0.0000       1.740142        47.3517 
  10   0.0000       1.747581        47.5541 
  11   0.0000       1.747581        47.5541 
  12   0.0000       1.774915        48.2979 
  13   0.0000       1.774915        48.2979 
  14   0.0000       4.058713       110.4432 
  15   0.0000       4.114433       111.9594 
  16   0.0000       4.114433       111.9594 
  17   0.0000       5.530808       150.5009 
  18   0.0000       5.530808       150.5009 
  19   0.0000       5.541896       150.8027 
  20   0.0000       5.541900       150.8028 
  21   0.0000       5.548423       150.9803 
  22   0.0000       5.548423       150.9803 
  23   0.0000       5.550559       151.0384 
  24   0.0000       6.698399       182.2727 
  25   0.0000       6.702618       182.3875 
  26   0.0000       6.702618       182.3875 
  27   0.0000       6.715853       182.7476 
  28   0.0000       6.715885       182.7485 
  29   0.0000       7.574872       206.1228 

                    ********************************
                    * MULLIKEN POPULATION ANALYSIS *
                    ********************************

--------------------------------------------
MULLIKEN ATOMIC CHARGES AND SPIN POPULATIONS
--------------------------------------------
   0 O :    0.000000    2.000000
Sum of atomic charges         :    0.0000000
Sum of atomic spin populations:    2.0000000

-----------------------------------------------------
MULLIKEN REDUCED ORBITAL CHARGES AND SPIN POPULATIONS
-----------------------------------------------------
CHARGE
  0 O s       :     3.998609  s :     3.998609
      pz      :     0.999945  p :     3.999788
      px      :     1.999617
      py      :     1.000226
      dz2     :     0.000348  d :     0.001391
      dxz     :     0.000000
      dyz     :     0.000000
      dx2y2   :     0.001042
      dxy     :     0.000001
      f0      :     0.000022  f :     0.000212
      f+1     :     0.000035
      f-1     :     0.000004
      f+2     :     0.000037
      f-2     :     0.000000
      f+3     :     0.000058
      f-3     :     0.000056

SPIN
  0 O s       :     0.000428  s :     0.000428
      pz      :     0.999936  p :     1.999791
      px      :     0.000202
      py      :     0.999654
      dz2     :    -0.000107  d :    -0.000428
      dxz     :    -0.000000
      dyz     :    -0.000000
      dx2y2   :    -0.000321
      dxy     :    -0.000000
      f0      :     0.000022  f :     0.000209
      f+1     :     0.000033
      f-1     :     0.000004
      f+2     :     0.000037
      f-2     :     0.000000
      f+3     :     0.000056
      f-3     :     0.000056


                     *******************************
                     * LOEWDIN POPULATION ANALYSIS *
                     *******************************

-------------------------------------------
LOEWDIN ATOMIC CHARGES AND SPIN POPULATIONS
-------------------------------------------
   0 O :    0.000000    2.000000

----------------------------------------------------
LOEWDIN REDUCED ORBITAL CHARGES AND SPIN POPULATIONS
----------------------------------------------------
CHARGE
  0 O s       :     3.998609  s :     3.998609
      pz      :     0.999945  p :     3.999788
      px      :     1.999617
      py      :     1.000226
      dz2     :     0.000348  d :     0.001391
      dxz     :     0.000000
      dyz     :     0.000000
      dx2y2   :     0.001042
      dxy     :     0.000001
      f0      :     0.000022  f :     0.000212
      f+1     :     0.000035
      f-1     :     0.000004
      f+2     :     0.000037
      f-2     :     0.000000
      f+3     :     0.000058
      f-3     :     0.000056

SPIN
  0 O s       :     0.000428  s :     0.000428
      pz      :     0.999936  p :     1.999791
      px      :     0.000202
      py      :     0.999654
      dz2     :    -0.000107  d :    -0.000428
      dxz     :    -0.000000
      dyz     :    -0.000000
      dx2y2   :    -0.000321
      dxy     :    -0.000000
      f0      :     0.000022  f :     0.000209
      f+1     :     0.000033
      f-1     :     0.000004
      f+2     :     0.000037
      f-2     :     0.000000
      f+3     :     0.000056
      f-3     :     0.000056


                      *****************************
                      * MAYER POPULATION ANALYSIS *
                      *****************************

  NA   - Mulliken gross atomic population
  ZA   - Total nuclear charge
  QA   - Mulliken gross atomic charge
  VA   - Mayer's total valence
  BVA  - Mayer's bonded valence
  FA   - Mayer's free valence

  ATOM       NA         ZA         QA         VA         BVA        FA
  0 O      8.0000     8.0000     0.0000     2.0144     0.0000     2.0144

  Mayer bond orders larger than 0.1


-------
TIMINGS
-------

Total SCF time: 0 days 0 hours 0 min 2 sec 

Total time                  ....       2.760 sec
Sum of individual times     ....       2.754 sec  ( 99.8%)

Fock matrix formation       ....       2.534 sec  ( 91.8%)
  Split-RI-J                ....       1.388 sec  ( 54.8% of F)
  Chain of spheres X        ....       0.969 sec  ( 38.3% of F)
  COS-X 1 center corr.      ....       0.000 sec  (  0.0% of F)
Diagonalization             ....       0.010 sec  (  0.4%)
Density matrix formation    ....       0.000 sec  (  0.0%)
Population analysis         ....       0.001 sec  (  0.0%)
Initial guess               ....       0.098 sec  (  3.5%)
Orbital Transformation      ....       0.000 sec  (  0.0%)
Orbital Orthonormalization  ....       0.000 sec  (  0.0%)
DIIS solution               ....       0.003 sec  (  0.1%)

   <<< Auxbasis replaced with O.AUXC.tmp (Dim=81) >>> 


------------------------------------------------------------------------------
                                ORCA  MP2 
------------------------------------------------------------------------------

Freezing NCore=2 chemical core electrons

   <<< Use J-auxbasis for calculation of Separable RI-J derivative contributions O.AUXJ.tmp (Dim=49) >>> 


-------------
RI-MP2 ENERGY
-------------
Dimension of the basis                    ...   30
Memory devoted to MP2                     ...  256 MB   
Data format for buffers                   ... DOUBLE
Compression type for matrix containers    ... UNCOMPRESSED
Overall scaling of the MP2 energy         ...   1.000e+00
Calculating two index integrals           ... done (    0.011 sec)
Cholesky decomposition of V**-1           ... done (    0.001 sec)

-----------------
RI-TRANSFORMATION (AUX index driven)
-----------------

Dimension of the orbital-basis         ... 30
Dimension of the aux-basis             ... 81
Transformation of internal/external MOs...    1-   4 to    5-  29
Number Format for Storage              ... Double (8 Byte)
Integral mode                          ... Direct

First Phase: integral generation and transformation of MO indices
  Aux angular momentum 0               ... done (    0.001 sec)
  Aux angular momentum 1               ... done (    0.001 sec)
  Aux angular momentum 2               ... done (    0.001 sec)
  Aux angular momentum 3               ... done (    0.001 sec)
  Aux angular momentum 4               ... done (    0.000 sec)
Closing buffer VIA ( 0.00 GB; CompressionRatio= 0.99)
  Phase 1 completed in     0.079 sec
Second Phase: sorting and transformation of aux index

IA-Transformation
Memory available                       ... 256 MB 
Max. # MO pairs treated in a batch     ... 4    
# of internal orbitals                 ... 4
# batches for internal orbitals        ... 1
Closing buffer IAV ( 0.00 GB; CompressionRatio= 1.00)
(ia|v) transformation done in     0.000 sec

  Phase 2 completed in     0.000 sec
RI-Integral transformation completed in     0.080 sec

-----------------
RI-TRANSFORMATION (AUX index driven)
-----------------

Dimension of the orbital-basis         ... 30
Dimension of the aux-basis             ... 81
Transformation of internal/external MOs...    1-   2 to    3-  29
Number Format for Storage              ... Double (8 Byte)
Integral mode                          ... Direct

First Phase: integral generation and transformation of MO indices
  Aux angular momentum 0               ... done (    0.001 sec)
  Aux angular momentum 1               ... done (    0.001 sec)
  Aux angular momentum 2               ... done (    0.001 sec)
  Aux angular momentum 3               ... done (    0.001 sec)
  Aux angular momentum 4               ... done (    0.000 sec)
Closing buffer VIA ( 0.00 GB; CompressionRatio= 0.97)
  Phase 1 completed in     0.078 sec
Second Phase: sorting and transformation of aux index

IA-Transformation
Memory available                       ... 256 MB 
Max. # MO pairs treated in a batch     ... 2    
# of internal orbitals                 ... 2
# batches for internal orbitals        ... 1
Closing buffer IAV ( 0.00 GB; CompressionRatio= 1.00)
(ia|v) transformation done in     0.000 sec

  Phase 2 completed in     0.000 sec
RI-Integral transformation completed in     0.079 sec
Opening buffers                              ... done

Starting loop over batches of integrals:

Operator 0  - window                       ... (  1-  4)x(  5- 29)
Operator 0  - Memory available             ...   256 MB
Operator 0  - Memory needed per MO         ...   0.0 MB
Operator 0  - Number of orbitals per batch ... 4
Operator 0  - Number of batches            ... 1

OPERATOR  0   PASS   0:  MOs     1 ...    4
  Reading integrals       ... ok
  Internal MO   3

Operator 1  - window                       ... (  1-  2)x(  3- 29)
Operator 1  - Memory available             ...   256 MB
Operator 1  - Memory needed per MO         ...   0.0 MB
Operator 1  - Number of orbitals per batch ... 2
Operator 1  - Number of batches            ... 1

OPERATOR  1   PASS   0:  MOs     1 ...    2
  Reading integrals       ... ok
Time spent in pair loops =     0.001 sec
Deleting buffer (Ka|jb)[aa] ...done
Deleting buffer (Ka|jb)[ab] ...done
Deleting buffer (Ka|jb)[ba] ...done
Deleting buffer (Ka|jb)[bb] ...done

Correlation energy components}
 E2 and T2 for alpha/alpha pairs :     -0.031258003 Eh      0.000000000
 E2 and T2 for beta/beta   pairs :     -0.004246991 Eh      0.000000000
 E2 and T2 for alpha/beta  pairs :     -0.107637564 Eh      0.000000000


-----------------------------------------------
 RI-MP2 CORRELATION ENERGY:     -0.143142559 Eh
-----------------------------------------------


-------
TIMINGS
-------

Total time                :    0.192 sec
Integral trafo            :    0.179 sec ( 93.2%)
I/O of integrals          :    0.000 sec (  0.0%)
K(i,j) Operators          :    0.000 sec (  0.1%)
T(i,j) pair energies      :    0.000 sec (  0.0%)
V-calculation             :    0.011 sec (  6.0%)
V**(-1/2)                 :    0.001 sec (  0.3%)
Gamma(ia|P)               :    0.000 sec (  0.0%)
Gamma-Trafo               :    0.000 sec (  0.0%)
D(virtual)                :    0.000 sec (  0.0%)
D(internal)               :    0.000 sec (  0.0%)
W(virtual)                :    0.000 sec (  0.0%)
W(internal)               :    0.000 sec (  0.0%)
L(virtual)                :    0.000 sec (  0.0%)
L(internal)               :    0.000 sec (  0.0%)
G(D)                      :    0.000 sec (  0.0%)
G(Z)                      :    0.000 sec (  0.0%)
Z-Vector Solution         :    0.000 sec (  0.0%)
3-Index Derivative        :    0.000 sec (  0.0%)
2-Index Derivative        :    0.000 sec (  0.0%)
Separable Gradient (RIJ)  :    0.000 sec (  0.0%)
Separable Gradient (COSX) :    0.000 sec (  0.0%)


---------------------------------------
MP2 TOTAL ENERGY:      -74.954928190 Eh
---------------------------------------

-------------------------   --------------------
FINAL SINGLE POINT ENERGY       -74.954928190478
-------------------------   --------------------


                            ***************************************
                            *     ORCA property calculations      *
                            ***************************************


  WARNING: The energy has been calculated at the MP2 level but the densities
           used in the property calculations are still SCF densities
           MP2 response densities have not been calculated 
           use %mp2 Density relaxed end
           or  %mp2 Density unrelaxed end

                                    ---------------------
                                    Active property flags
                                    ---------------------
   (+) Dipole Moment


------------------------------------------------------------------------------
                       ORCA ELECTRIC PROPERTIES CALCULATION
------------------------------------------------------------------------------

Dipole Moment Calculation                       ... on
Quadrupole Moment Calculation                   ... off
Polarizability Calculation                      ... off
GBWName                                         ... O.gbw
Electron density file                           ... O.scfp.tmp

-------------
DIPOLE MOMENT
-------------
                                X             Y             Z
Electronic contribution:     -0.00000      -0.00000      -0.00000
Nuclear contribution   :      0.00000       0.00000       0.00000
                        -----------------------------------------
Total Dipole Moment    :     -0.00000      -0.00000      -0.00000
                        -----------------------------------------
Magnitude (a.u.)       :      0.00000
Magnitude (Debye)      :      0.00000


Timings for individual modules:

Sum of individual times         ...        3.245 sec (=   0.054 min)
GTO integral calculation        ...        0.168 sec (=   0.003 min)   5.2 %
SCF iterations                  ...        2.780 sec (=   0.046 min)  85.7 %
MP2 module                      ...        0.296 sec (=   0.005 min)   9.1 %
                             ****ORCA TERMINATED NORMALLY****
TOTAL RUN TIME: 0 days 0 hours 0 minutes 3 seconds 361 msec
