
                                 *****************
                                 * O   R   C   A *
                                 *****************

           --- An Ab Initio, DFT and Semiempirical electronic structure package ---

                  #######################################################
                  #                        -***-                        #
                  #  Department of molecular theory and spectroscopy    #
                  #              Directorship: Frank Neese              #
                  # Max Planck Institute for Chemical Energy Conversion #
                  #                  D-45470 Muelheim/Ruhr              #
                  #                       Germany                       #
                  #                                                     #
                  #                  All rights reserved                #
                  #                        -***-                        #
                  #######################################################


                         Program Version 4.0.0.2 - RELEASE -


 With contributions from (in alphabetic order):
   Daniel Aravena         : Magnetic Properties
   Michael Atanasov       : Ab Initio Ligand Field Theory
   Ute Becker             : Parallelization
   Martin Brehm           : Molecular dynamics
   Dmytro Bykov           : SCF Hessian
   Vijay G. Chilkuri      : MRCI spin determinant printing
   Dipayan Datta          : RHF DLPNO-CCSD density
   Achintya Kumar Dutta   : EOM-CC, STEOM-CC
   Dmitry Ganyushin       : Spin-Orbit,Spin-Spin,Magnetic field MRCI
   Yang Guo               : DLPNO-NEVPT2, CIM, IAO-localization
   Andreas Hansen         : Spin unrestricted coupled pair/coupled cluster methods
   Lee Huntington         : MR-EOM, pCC
   Robert Izsak           : Overlap fitted RIJCOSX, COSX-SCS-MP3, EOM
   Christian Kollmar      : KDIIS, OOCD, Brueckner-CCSD(T), CCSD density
   Simone Kossmann        : Meta GGA functionals, TD-DFT gradient, OOMP2, MP2 Hessian
   Martin Krupicka        : AUTO-CI
   Dagmar Lenk            : GEPOL surface
   Dimitrios Liakos       : Extrapolation schemes; parallel MDCI
   Dimitrios Manganas     : ROCIS; embedding schemes
   Dimitrios Pantazis     : SARC Basis sets
   Taras Petrenko         : DFT Hessian,TD-DFT gradient, ASA, ECA, R-Raman, ABS, FL, XAS/XES, NRVS
   Peter Pinski           : DLPNO-MP2
   Christoph Reimann      : Effective Core Potentials
   Marius Retegan         : Local ZFS, SOC
   Christoph Riplinger    : Optimizer, TS searches, QM/MM, DLPNO-CCSD(T), (RO)-DLPNO pert. Triples
   Tobias Risthaus        : Range-separated hybrids, TD-DFT gradient, RPA, STAB
   Michael Roemelt        : Restricted open shell CIS
   Masaaki Saitow         : Open-shell DLPNO
   Barbara Sandhoefer     : DKH picture change effects
   Kantharuban Sivalingam : CASSCF convergence, NEVPT2, FIC-MRCI
   Georgi Stoychev        : AutoAux
   Boris Wezisla          : Elementary symmetry handling
   Frank Wennmohs         : Technical directorship


 We gratefully acknowledge several colleagues who have allowed us to
 interface, adapt or use parts of their codes:
   Stefan Grimme, W. Hujo, H. Kruse,             : VdW corrections, initial TS optimization,
                  C. Bannwarth                     DFT functionals, gCP, sTDA/sTD-DF
   Ed Valeev                                     : LibInt (2-el integral package), F12 methods
   Garnet Chan, S. Sharma, J. Yang, R. Olivares  : DMRG
   Ulf Ekstrom                                   : XCFun DFT Library
   Mihaly Kallay                                 : mrcc  (arbitrary order and MRCC methods)
   Jiri Pittner, Ondrej Demel                    : Mk-CCSD
   Frank Weinhold                                : gennbo (NPA and NBO analysis)
   Christopher J. Cramer and Donald G. Truhlar   : smd solvation model


 Your calculation uses the libint2 library for the computation of 2-el integrals
 For citations please refer to: http://libint.valeyev.net

 This ORCA versions uses:
   CBLAS   interface :  Fast vector & matrix operations
   LAPACKE interface :  Fast linear algebra routines
   SCALAPACK package :  Parallel linear algebra routines


Your calculation utilizes the basis: cc-pVTZ 
       H, B-Ne : Obtained from the ccRepo (grant-hill.group.shef.ac.uk/ccrepo) Feb. 2017
                 T. H. Dunning, Jr., J. Chem. Phys. 90, 1007 (1989)
            He : Obtained from the ccRepo (grant-hill.group.shef.ac.uk/ccrepo) Feb. 2017
                 D. E. Woon, T. H. Dunning, Jr., J. Chem. Phys. 100, 2975 (1994)
  Li-Be, Na-Mg : Obtained from the ccRepo (grant-hill.group.shef.ac.uk/ccrepo) Feb. 2017
                 B. P. Prascher, D. E. Woon, K. A. Peterson, T. H. Dunning, Jr., A. K. Wilson, Theor. Chem. Acc. 128, 69 (2011)
         Al-Ar : Obtained from the ccRepo (grant-hill.group.shef.ac.uk/ccrepo) Feb. 2017
                 D. E. Woon, T. H. Dunning, Jr., J. Chem. Phys. 98, 1358 (1993)
            Ca : Obtained from the Peterson Research Group Website (tyr0.chem.wsu.edu/~kipeters) Feb. 2017
                 J. Koput, K. A. Peterson, J. Phys. Chem. 106, 9595 (2002)
         Sc-Zn : Obtained from the ccRepo (grant-hill.group.shef.ac.uk/ccrepo) Feb. 2017
                 N. B. Balabanov, K. A. Peterson, J. Chem. Phys. 123, 064107 (2005)
                 N. B. Balabanov, K. A. Peterson, J. Chem. Phys. 125, 074110 (2006)
         Ga-Kr : Obtained from the ccRepo (grant-hill.group.shef.ac.uk/ccrepo) Feb. 2017
                 A. K. Wilson, D. E. Woon, K. A. Peterson, T. H. Dunning, Jr., J. Chem. Phys. 110, 7667 (1999)
             Y : Obtained from the ccRepo (grant-hill.group.shef.ac.uk/ccrepo) Feb. 2017
                 K. A. Peterson, D. Figgen, M. Dolg, H. Stoll, J. Chem. Phys. 126, 124101 (2007)
        Ag, Au : Obtained from the Peterson Research Group Website (tyr0.chem.wsu.edu/~kipeters) Feb. 2017
                 K. A. Peterson, C. Puzzarini, Theor. Chem. Acc. 114, 283 (2005)

Your calculation utilizes the auxiliary basis: def2/J
   F. Weigend, Phys. Chem. Chem. Phys. 8, 1057 (2006).

Your calculation utilizes the auxiliary basis: cc-pVTZ/C 
  Obtained from the EMSL Basis Set Exchange (bse.pnl.gov) Feb. 2017
  H-He, B-F, Al-Ar, Ga-Kr : F. Weigend, A. Kohn, C. Hattig, J. Chem. Phys. 116, 3175 (2002)
             Li-Be, Na-Mg : C. Haettig, Phys. Chem. Chem. Phys. 7, 59 (2005)
                       Ne : C. Haettig, Phys. Chem. Chem. Phys. 7, 59 (2005)
                            F. Weigend, A. Kohn, C. Hattig, J. Chem. Phys. 116, 3175 (2002)
                    Sc-Zn : J. G. Hill, J. A. Platts, J. Chem. Phys. 128, 044104 (2008)

================================================================================
                                        WARNINGS
                       Please study these warnings very carefully!
================================================================================

Warning: TCutStore was < 0. Adjusted to Thresh (uncritical)

WARNING: your system is open-shell and RHF/RKS was chosen
  ===> : WILL SWITCH to UHF/UKS


WARNING: Post HF methods need fully converged wavefunctions
  ===> : Setting SCFConvForced true
         You can overwrite this default with %scf ConvForced false 


INFO   : the flag for use of LIBINT has been found!

================================================================================
                                       INPUT FILE
================================================================================
NAME = S.inp
|  1> ! RI-MP2 RIJCOSX cc-pVTZ cc-pVTZ/C def2/J TIGHTSCF
|  2> * xyz 0 3 
|  3> S  0.0  0.0  0.0
|  4> *
|  5> 
|  6>                          ****END OF INPUT****
================================================================================

                       ****************************
                       * Single Point Calculation *
                       ****************************

---------------------------------
CARTESIAN COORDINATES (ANGSTROEM)
---------------------------------
  S      0.000000    0.000000    0.000000

----------------------------
CARTESIAN COORDINATES (A.U.)
----------------------------
  NO LB      ZA    FRAG     MASS         X           Y           Z
   0 S    16.0000    0    32.060    0.000000    0.000000    0.000000

--------------------------------
INTERNAL COORDINATES (ANGSTROEM)
--------------------------------
 S      0   0   0     0.000000000000     0.00000000     0.00000000

---------------------------
INTERNAL COORDINATES (A.U.)
---------------------------
 S      0   0   0     0.000000000000     0.00000000     0.00000000

---------------------
BASIS SET INFORMATION
---------------------
There are 1 groups of distinct atoms

 Group   1 Type S   : 41s16p2d1f contracted to 5s4p2d1f pattern {13131311/7711/11/1}

Atom   0S    basis set group =>   1
-------------------------------
AUXILIARY BASIS SET INFORMATION
-------------------------------
There are 1 groups of distinct atoms

 Group   1 Type S   : 14s5p5d2f1g contracted to 8s4p3d1f1g pattern {71111111/2111/311/2/1}

Atom   0S    basis set group =>   1
------------------------------------------------------------------------------
                           ORCA GTO INTEGRAL CALCULATION
                           -- RI-GTO INTEGRALS CHOSEN --
------------------------------------------------------------------------------

                         BASIS SET STATISTICS AND STARTUP INFO

Gaussian basis set:
 # of primitive gaussian shells          ...   60
 # of primitive gaussian functions       ...  106
 # of contracted shells                  ...   12
 # of contracted basis functions         ...   34
 Highest angular momentum                ...    3
 Maximum contraction depth               ...   13
Auxiliary gaussian basis set:
 # of primitive gaussian shells          ...   27
 # of primitive gaussian functions       ...   77
 # of contracted shells                  ...   17
 # of contracted aux-basis functions     ...   51
 Highest angular momentum                ...    4
 Maximum contraction depth               ...    7
Ratio of auxiliary to basis functions    ...  1.50
Integral package used                  ... LIBINT
 One Electron integrals                  ... done
 Ordering auxiliary basis shells         ... done
 Integral threshhold             Thresh  ...  2.500e-11
 Primitive cut-off               TCut    ...  2.500e-12
 Pre-screening matrix                    ... done
 Shell pair data                         ... 
 Ordering of the shell pairs             ... done (   0.000 sec) 78 of 78 pairs
 Determination of significant pairs      ... done (   0.000 sec)
 Creation of shell pair data             ... done (   0.000 sec)
 Storage of shell pair data              ... done (   0.000 sec)
 Shell pair data done in (   0.000 sec)
 Computing two index integrals           ... done
 Cholesky decomposition of the V-matrix  ... done


Timings:
 Total evaluation time                   ...   0.197 sec (  0.003 min)
 One electron matrix time                ...   0.005 sec (  0.000 min) =  2.4%
 Schwartz matrix evaluation time         ...   0.176 sec (  0.003 min) = 89.0%
 Two index repulsion integral time       ...   0.000 sec (  0.000 min) =  0.1%
 Cholesky decomposition of V             ...   0.000 sec (  0.000 min) =  0.1%
 Three index repulsion integral time     ...   0.000 sec (  0.000 min) =  0.0%

-------------------------------------------------------------------------------
                                 ORCA SCF
-------------------------------------------------------------------------------

------------
SCF SETTINGS
------------
Hamiltonian:
 Ab initio Hamiltonian  Method          .... Hartree-Fock(GTOs)
 RI-approximation to the Coulomb term is turned on
   Number of auxiliary basis functions  .... 51
   RIJ-COSX (HFX calculated with COS-X)).... on


General Settings:
 Integral files         IntName         .... S
 Hartree-Fock type      HFTyp           .... UHF
 Total Charge           Charge          ....    0
 Multiplicity           Mult            ....    3
 Number of Electrons    NEL             ....   16
 Basis Dimension        Dim             ....   34
 Nuclear Repulsion      ENuc            ....      0.0000000000 Eh

Convergence Acceleration:
 DIIS                   CNVDIIS         .... on
   Start iteration      DIISMaxIt       ....    12
   Startup error        DIISStart       ....  0.200000
   # of expansion vecs  DIISMaxEq       ....     5
   Bias factor          DIISBfac        ....   1.050
   Max. coefficient     DIISMaxC        ....  10.000
 Newton-Raphson         CNVNR           .... off
 SOSCF                  CNVSOSCF        .... off
 Level Shifting         CNVShift        .... on
   Level shift para.    LevelShift      ....    0.2500
   Turn off err/grad.   ShiftErr        ....    0.0010
 Zerner damping         CNVZerner       .... off
 Static damping         CNVDamp         .... on
   Fraction old density DampFac         ....    0.7000
   Max. Damping (<1)    DampMax         ....    0.9800
   Min. Damping (>=0)   DampMin         ....    0.0000
   Turn off err/grad.   DampErr         ....    0.1000
 Fernandez-Rico         CNVRico         .... off

SCF Procedure:
 Maximum # iterations   MaxIter         ....   125
 SCF integral mode      SCFMode         .... Direct
   Integral package                     .... LIBINT
 Reset frequeny         DirectResetFreq ....    20
 Integral Threshold     Thresh          ....  2.500e-11 Eh
 Primitive CutOff       TCut            ....  2.500e-12 Eh

Convergence Tolerance:
 Convergence Check Mode ConvCheckMode   .... Total+1el-Energy
 Convergence forced     ConvForced      .... 1
 Energy Change          TolE            ....  1.000e-08 Eh
 1-El. energy change                    ....  1.000e-05 Eh
 DIIS Error             TolErr          ....  5.000e-07


Diagonalization of the overlap matrix:
Smallest eigenvalue                        ... 1.965e-02
Time for diagonalization                   ...    0.001 sec
Threshold for overlap eigenvalues          ... 1.000e-08
Number of eigenvalues below threshold      ... 0
Time for construction of square roots      ...    0.000 sec
Total time needed                          ...    0.001 sec

-------------------
DFT GRID GENERATION
-------------------

General Integration Accuracy     IntAcc      ...  4.340
Radial Grid Type                 RadialGrid  ... Gauss-Chebyshev
Angular Grid (max. acc.)         AngularGrid ... Lebedev-110
Angular grid pruning method      GridPruning ... 3 (G Style)
Weight generation scheme         WeightScheme... Becke
Basis function cutoff            BFCut       ...    1.0000e-11
Integration weight cutoff        WCut        ...    1.0000e-14
Grids for H and He will be reduced by one unit

# of grid points (after initial pruning)     ...   1806 (   0.0 sec)
# of grid points (after weights+screening)   ...   1806 (   0.0 sec)
Grid point division into batches done        ...    0.0 sec
Reduced shell lists constructed in    0.0 sec

Total number of grid points                  ...     1806
Total number of batches                      ...       29
Average number of points per batch           ...       62
Average number of grid points per atom       ...     1806
Average number of shells per batch           ...    11.60 (96.67%)
Average number of basis functions per batch  ...    32.87 (96.67%)
Average number of large shells per batch     ...    10.80 (93.10%)
Average number of large basis fcns per batch ...    31.27 (95.13%)
Maximum spatial batch extension              ...  16.21, 29.83, 29.83 au
Average spatial batch extension              ...   7.37,  8.62,  9.80 au

Time for grid setup =    0.016 sec

------------------------------
INITIAL GUESS: MODEL POTENTIAL
------------------------------
Loading Hartree-Fock densities                     ... done
Calculating cut-offs                               ... done
Setting up the integral package                    ... done
Initializing the effective Hamiltonian             ... done
Starting the Coulomb interaction                   ... done (   0.0 sec)
Reading the grid                                   ... done
Mapping shells                                     ... done
Starting the XC term evaluation                    ... done (   0.0 sec)
Transforming the Hamiltonian                       ... done (   0.0 sec)
Diagonalizing the Hamiltonian                      ... done (   0.0 sec)
Back transforming the eigenvectors                 ... done (   0.0 sec)
Now organizing SCF variables                       ... done
                      ------------------
                      INITIAL GUESS DONE (   0.1 sec)
                      ------------------
--------------------
COSX GRID GENERATION
--------------------

General Integration Accuracy     IntAcc      ...  3.340
Radial Grid Type                 RadialGrid  ... Gauss-Chebyshev
Angular Grid (max. acc.)         AngularGrid ... Lebedev-50
Angular grid pruning method      GridPruning ... 3 (G Style)
Weight generation scheme         WeightScheme... Becke
Basis function cutoff            BFCut       ...    1.0000e-11
Integration weight cutoff        WCut        ...    1.0000e-14
Grids for H and He will be reduced by one unit

# of grid points (after initial pruning)     ...    706 (   0.0 sec)
# of grid points (after weights+screening)   ...    706 (   0.0 sec)
Grid point division into batches done        ...    0.0 sec
Reduced shell lists constructed in    0.0 sec

Total number of grid points                  ...      706
Total number of batches                      ...       12
Average number of points per batch           ...       58
Average number of grid points per atom       ...      706
Average number of shells per batch           ...    11.08 (92.31%)
Average number of basis functions per batch  ...    31.38 (92.31%)
Average number of large shells per batch     ...    11.08 (100.00%)
Average number of large basis fcns per batch ...    31.38 (100.00%)
Maximum spatial batch extension              ...  20.57, 25.19, 25.19 au
Average spatial batch extension              ...   7.75, 11.15, 12.07 au

Overlap Fitting                  UseSFitting ... on
Constructing numerical overlap ... done (      0.0 sec)
Inverting numerical overlap    ... done (      0.0 sec)
Obtaining analytic overlap     ... done (      0.0 sec)
Final contraction and storage  ... done (      0.0 sec)


General Integration Accuracy     IntAcc      ...  3.670
Radial Grid Type                 RadialGrid  ... Gauss-Chebyshev
Angular Grid (max. acc.)         AngularGrid ... Lebedev-50
Angular grid pruning method      GridPruning ... 3 (G Style)
Weight generation scheme         WeightScheme... Becke
Basis function cutoff            BFCut       ...    1.0000e-11
Integration weight cutoff        WCut        ...    1.0000e-14
Grids for H and He will be reduced by one unit

# of grid points (after initial pruning)     ...    870 (   0.0 sec)
# of grid points (after weights+screening)   ...    870 (   0.0 sec)
Grid point division into batches done        ...    0.0 sec
Reduced shell lists constructed in    0.0 sec

Total number of grid points                  ...      870
Total number of batches                      ...       14
Average number of points per batch           ...       62
Average number of grid points per atom       ...      870
Average number of shells per batch           ...    11.20 (93.33%)
Average number of basis functions per batch  ...    31.73 (93.33%)
Average number of large shells per batch     ...    11.20 (100.00%)
Average number of large basis fcns per batch ...    31.73 (100.00%)
Maximum spatial batch extension              ...  22.03, 26.98, 26.98 au
Average spatial batch extension              ...   7.47, 10.70, 11.36 au

Overlap Fitting                  UseSFitting ... on
Constructing numerical overlap ... done (      0.0 sec)
Inverting numerical overlap    ... done (      0.0 sec)
Obtaining analytic overlap     ... done (      0.0 sec)
Final contraction and storage  ... done (      0.0 sec)


General Integration Accuracy     IntAcc      ...  4.010
Radial Grid Type                 RadialGrid  ... Gauss-Chebyshev
Angular Grid (max. acc.)         AngularGrid ... Lebedev-110
Angular grid pruning method      GridPruning ... 3 (G Style)
Weight generation scheme         WeightScheme... Becke
Basis function cutoff            BFCut       ...    1.0000e-11
Integration weight cutoff        WCut        ...    1.0000e-14
Grids for H and He will be reduced by one unit

# of grid points (after initial pruning)     ...   1632 (   0.0 sec)
# of grid points (after weights+screening)   ...   1632 (   0.0 sec)
Grid point division into batches done        ...    0.0 sec
Reduced shell lists constructed in    0.0 sec

Total number of grid points                  ...     1632
Total number of batches                      ...       26
Average number of points per batch           ...       62
Average number of grid points per atom       ...     1632
Average number of shells per batch           ...    11.56 (96.30%)
Average number of basis functions per batch  ...    32.74 (96.30%)
Average number of large shells per batch     ...    11.11 (96.15%)
Average number of large basis fcns per batch ...    31.85 (97.29%)
Maximum spatial batch extension              ...  15.43, 28.50, 28.50 au
Average spatial batch extension              ...   7.79,  9.18, 10.34 au

Overlap Fitting                  UseSFitting ... on
Constructing numerical overlap ... done (      0.0 sec)
Inverting numerical overlap    ... done (      0.0 sec)
Obtaining analytic overlap     ... done (      0.0 sec)
Final contraction and storage  ... done (      0.0 sec)

Time for X-Grid setup             =    0.132 sec
--------------
SCF ITERATIONS
--------------
ITER       Energy         Delta-E        Max-DP      RMS-DP      [F,P]     Damp
               ***  Starting incremental Fock matrix formation  ***
  0   -397.4896374717   0.000000000000 0.02325656  0.00102659  0.1213132 0.7000
  1   -397.4940814032  -0.004443931555 0.01685730  0.00080279  0.0867972 0.7000
                               ***Turning on DIIS***
  2   -397.4973976344  -0.003316231150 0.03976442  0.00200484  0.0616504 0.0000
  3   -397.5040035035  -0.006605869053 0.00941294  0.00039771  0.0049130 0.0000
  4   -397.5083201028  -0.004316599343 0.00446625  0.00020211  0.0020004 0.0000
  5   -397.5038713383   0.004448764515 0.00278096  0.00014328  0.0009760 0.0000
               *** Restarting incremental Fock matrix formation ***
                                   *** Resetting DIIS ***
  6   -397.5070143976  -0.003143059273 0.00772745  0.00034158  0.0243443 0.0000
  7   -397.5102367215  -0.003222323978 0.00432992  0.00020238  0.0083754 0.0000
  8   -397.5088178373   0.001418884190 0.00134362  0.00008044  0.0018998 0.0000
  9   -397.5091851708  -0.000367333420 0.00095743  0.00005066  0.0004073 0.0000
 10   -397.5092460597  -0.000060888935 0.00040592  0.00002107  0.0000681 0.0000
 11   -397.5093661973  -0.000120137635 0.00015659  0.00000842  0.0000156 0.0000
 12   -397.5093618812   0.000004316157 0.00005921  0.00000326  0.0000058 0.0000
 13   -397.5093747932  -0.000012912018 0.00004102  0.00000220  0.0000034 0.0000
 14   -397.5093646699   0.000010123311 0.00000346  0.00000016  0.0000019 0.0000
 15   -397.5093626331   0.000002036777 0.00000131  0.00000005  0.0000017 0.0000
 16   -397.5093626492  -0.000000016126 0.00000086  0.00000004  0.0000017 0.0000
 17   -397.5093629467  -0.000000297513 0.00000045  0.00000002  0.0000017 0.0000
                 **** Energy Check signals convergence ****

               *****************************************************
               *                     SUCCESS                       *
               *           SCF CONVERGED AFTER  18 CYCLES          *
               *****************************************************

Old exchange energy                            =    -25.035302733 Eh
New exchange energy                            =    -25.035106231 Eh
Exchange energy change after final integration =      0.000196502 Eh
Total energy after final integration           =   -397.509166451 Eh
Final COS-X integration done in                =     0.210 sec

----------------
TOTAL SCF ENERGY
----------------

Total Energy       :         -397.50916645 Eh          -10816.77433 eV

Components:
Nuclear Repulsion  :            0.00000000 Eh               0.00000 eV
Electronic Energy  :         -397.50916645 Eh          -10816.77433 eV
One Electron Energy:         -549.40911097 Eh          -14950.18196 eV
Two Electron Energy:          151.89994452 Eh            4133.40763 eV

Virial components:
Potential Energy   :         -795.02305028 Eh          -21633.67703 eV
Kinetic Energy     :          397.51388383 Eh           10816.90270 eV
Virial Ratio       :            1.99998813


---------------
SCF CONVERGENCE
---------------

  Last Energy change         ...   -6.1603e-09  Tolerance :   1.0000e-08
  Last MAX-Density change    ...    0.0000e+00  Tolerance :   1.0000e-07
  Last RMS-Density change    ...    0.0000e+00  Tolerance :   5.0000e-09
  Last DIIS Error            ...    1.7233e-06  Tolerance :   5.0000e-07

             **** THE GBW FILE WAS UPDATED (S.gbw) ****
             **** DENSITY FILE WAS UPDATED (S.scfp.tmp) ****
             **** ENERGY FILE WAS UPDATED (S.en.tmp) ****
----------------------
UHF SPIN CONTAMINATION
----------------------

Expectation value of <S**2>     :     2.011558
Ideal value S*(S+1) for S=1.0   :     2.000000
Deviation                       :     0.011558

----------------
ORBITAL ENERGIES
----------------
                 SPIN UP ORBITALS
  NO   OCC          E(Eh)            E(eV) 
   0   1.0000     -92.010605     -2503.7358 
   1   1.0000      -9.010970      -245.2009 
   2   1.0000      -6.703347      -182.4073 
   3   1.0000      -6.703346      -182.4073 
   4   1.0000      -6.682689      -181.8452 
   5   1.0000      -0.988189       -26.8900 
   6   1.0000      -0.485255       -13.2045 
   7   1.0000      -0.485255       -13.2045 
   8   1.0000      -0.414451       -11.2778 
   9   0.0000       0.395046        10.7498 
  10   0.0000       0.395046        10.7498 
  11   0.0000       0.427629        11.6364 
  12   0.0000       0.463242        12.6055 
  13   0.0000       0.463242        12.6055 
  14   0.0000       0.463896        12.6233 
  15   0.0000       0.503619        13.7042 
  16   0.0000       0.503619        13.7042 
  17   0.0000       0.519350        14.1322 
  18   0.0000       1.752438        47.6863 
  19   0.0000       1.752439        47.6863 
  20   0.0000       1.791428        48.7472 
  21   0.0000       1.791430        48.7473 
  22   0.0000       1.805608        49.1331 
  23   0.0000       1.849069        50.3157 
  24   0.0000       1.849069        50.3157 
  25   0.0000       1.883288        51.2469 
  26   0.0000       1.883288        51.2469 
  27   0.0000       1.904498        51.8240 
  28   0.0000       1.904498        51.8240 
  29   0.0000       1.911746        52.0212 
  30   0.0000       2.195512        59.7429 
  31   0.0000       2.195512        59.7429 
  32   0.0000       2.243832        61.0578 
  33   0.0000       3.619647        98.4956 

                 SPIN DOWN ORBITALS
  NO   OCC          E(Eh)            E(eV) 
   0   1.0000     -91.993017     -2503.2573 
   1   1.0000      -8.992368      -244.6948 
   2   1.0000      -6.673358      -181.5913 
   3   1.0000      -6.657779      -181.1674 
   4   1.0000      -6.657733      -181.1661 
   5   1.0000      -0.773052       -21.0358 
   6   1.0000      -0.378203       -10.2914 
   7   0.0000       0.013542         0.3685 
   8   0.0000       0.013544         0.3686 
   9   0.0000       0.439156        11.9500 
  10   0.0000       0.476661        12.9706 
  11   0.0000       0.476663        12.9707 
  12   0.0000       0.508487        13.8366 
  13   0.0000       0.572222        15.5710 
  14   0.0000       0.579619        15.7722 
  15   0.0000       0.579619        15.7722 
  16   0.0000       0.608451        16.5568 
  17   0.0000       0.608451        16.5568 
  18   0.0000       1.831983        49.8508 
  19   0.0000       1.831985        49.8509 
  20   0.0000       1.834434        49.9175 
  21   0.0000       1.834435        49.9175 
  22   0.0000       1.835137        49.9366 
  23   0.0000       1.942213        52.8503 
  24   0.0000       1.942213        52.8503 
  25   0.0000       1.945973        52.9526 
  26   0.0000       1.945973        52.9526 
  27   0.0000       1.947782        53.0018 
  28   0.0000       1.947782        53.0019 
  29   0.0000       1.948316        53.0164 
  30   0.0000       2.258643        61.4608 
  31   0.0000       2.272051        61.8256 
  32   0.0000       2.272064        61.8260 
  33   0.0000       3.657860        99.5354 

                    ********************************
                    * MULLIKEN POPULATION ANALYSIS *
                    ********************************

--------------------------------------------
MULLIKEN ATOMIC CHARGES AND SPIN POPULATIONS
--------------------------------------------
   0 S :   -0.000000    2.000000
Sum of atomic charges         :   -0.0000000
Sum of atomic spin populations:    2.0000000

-----------------------------------------------------
MULLIKEN REDUCED ORBITAL CHARGES AND SPIN POPULATIONS
-----------------------------------------------------
CHARGE
  0 S s       :     5.994757  s :     5.994757
      pz      :     2.999722  p :     9.998980
      px      :     3.206996
      py      :     3.792262
      dz2     :     0.001311  d :     0.005243
      dxz     :     0.000000
      dyz     :     0.000000
      dx2y2   :     0.001348
      dxy     :     0.002585
      f0      :     0.000104  f :     0.001020
      f+1     :     0.000050
      f-1     :     0.000141
      f+2     :     0.000060
      f-2     :     0.000114
      f+3     :     0.000289
      f-3     :     0.000262

SPIN
  0 S s       :     0.001654  s :     0.001654
      pz      :     0.999721  p :     1.999032
      px      :     0.792381
      py      :     0.206930
      dz2     :    -0.000413  d :    -0.001654
      dxz     :    -0.000000
      dyz     :    -0.000000
      dx2y2   :    -0.000425
      dxy     :    -0.000815
      f0      :     0.000104  f :     0.000968
      f+1     :     0.000046
      f-1     :     0.000126
      f+2     :     0.000060
      f-2     :     0.000114
      f+3     :     0.000257
      f-3     :     0.000261


                     *******************************
                     * LOEWDIN POPULATION ANALYSIS *
                     *******************************

-------------------------------------------
LOEWDIN ATOMIC CHARGES AND SPIN POPULATIONS
-------------------------------------------
   0 S :   -0.000000    2.000000

----------------------------------------------------
LOEWDIN REDUCED ORBITAL CHARGES AND SPIN POPULATIONS
----------------------------------------------------
CHARGE
  0 S s       :     5.994757  s :     5.994757
      pz      :     2.999722  p :     9.998980
      px      :     3.206996
      py      :     3.792262
      dz2     :     0.001311  d :     0.005243
      dxz     :     0.000000
      dyz     :     0.000000
      dx2y2   :     0.001348
      dxy     :     0.002585
      f0      :     0.000104  f :     0.001020
      f+1     :     0.000050
      f-1     :     0.000141
      f+2     :     0.000060
      f-2     :     0.000114
      f+3     :     0.000289
      f-3     :     0.000262

SPIN
  0 S s       :     0.001654  s :     0.001654
      pz      :     0.999721  p :     1.999032
      px      :     0.792381
      py      :     0.206930
      dz2     :    -0.000413  d :    -0.001654
      dxz     :    -0.000000
      dyz     :    -0.000000
      dx2y2   :    -0.000425
      dxy     :    -0.000815
      f0      :     0.000104  f :     0.000968
      f+1     :     0.000046
      f-1     :     0.000126
      f+2     :     0.000060
      f-2     :     0.000114
      f+3     :     0.000257
      f-3     :     0.000261


                      *****************************
                      * MAYER POPULATION ANALYSIS *
                      *****************************

  NA   - Mulliken gross atomic population
  ZA   - Total nuclear charge
  QA   - Mulliken gross atomic charge
  VA   - Mayer's total valence
  BVA  - Mayer's bonded valence
  FA   - Mayer's free valence

  ATOM       NA         ZA         QA         VA         BVA        FA
  0 S     16.0000    16.0000    -0.0000     2.0231     0.0000     2.0231

  Mayer bond orders larger than 0.1


-------
TIMINGS
-------

Total SCF time: 0 days 0 hours 0 min 4 sec 

Total time                  ....       4.433 sec
Sum of individual times     ....       4.427 sec  ( 99.8%)

Fock matrix formation       ....       4.147 sec  ( 93.5%)
  Split-RI-J                ....       1.640 sec  ( 39.5% of F)
  Chain of spheres X        ....       2.496 sec  ( 60.2% of F)
  COS-X 1 center corr.      ....       0.000 sec  (  0.0% of F)
Diagonalization             ....       0.013 sec  (  0.3%)
Density matrix formation    ....       0.000 sec  (  0.0%)
Population analysis         ....       0.001 sec  (  0.0%)
Initial guess               ....       0.115 sec  (  2.6%)
Orbital Transformation      ....       0.000 sec  (  0.0%)
Orbital Orthonormalization  ....       0.000 sec  (  0.0%)
DIIS solution               ....       0.003 sec  (  0.1%)

   <<< Auxbasis replaced with S.AUXC.tmp (Dim=122) >>> 


------------------------------------------------------------------------------
                                ORCA  MP2 
------------------------------------------------------------------------------

Freezing NCore=10 chemical core electrons

   <<< Use J-auxbasis for calculation of Separable RI-J derivative contributions S.AUXJ.tmp (Dim=51) >>> 


-------------
RI-MP2 ENERGY
-------------
Dimension of the basis                    ...   34
Memory devoted to MP2                     ...  256 MB   
Data format for buffers                   ... DOUBLE
Compression type for matrix containers    ... UNCOMPRESSED
Overall scaling of the MP2 energy         ...   1.000e+00
Calculating two index integrals           ... done (    0.011 sec)
Cholesky decomposition of V**-1           ... done (    0.001 sec)

-----------------
RI-TRANSFORMATION (AUX index driven)
-----------------

Dimension of the orbital-basis         ... 34
Dimension of the aux-basis             ... 122
Transformation of internal/external MOs...    5-   8 to    9-  33
Number Format for Storage              ... Double (8 Byte)
Integral mode                          ... Direct

First Phase: integral generation and transformation of MO indices
  Aux angular momentum 0               ... done (    0.004 sec)
  Aux angular momentum 1               ... done (    0.004 sec)
  Aux angular momentum 2               ... done (    0.004 sec)
  Aux angular momentum 3               ... done (    0.003 sec)
  Aux angular momentum 4               ... done (    0.002 sec)
Closing buffer VIA ( 0.00 GB; CompressionRatio= 0.99)
  Phase 1 completed in     0.092 sec
Second Phase: sorting and transformation of aux index

IA-Transformation
Memory available                       ... 256 MB 
Max. # MO pairs treated in a batch     ... 4    
# of internal orbitals                 ... 4
# batches for internal orbitals        ... 1
Closing buffer IAV ( 0.00 GB; CompressionRatio= 1.00)
(ia|v) transformation done in     0.001 sec

  Phase 2 completed in     0.001 sec
RI-Integral transformation completed in     0.093 sec

-----------------
RI-TRANSFORMATION (AUX index driven)
-----------------

Dimension of the orbital-basis         ... 34
Dimension of the aux-basis             ... 122
Transformation of internal/external MOs...    5-   6 to    7-  33
Number Format for Storage              ... Double (8 Byte)
Integral mode                          ... Direct

First Phase: integral generation and transformation of MO indices
  Aux angular momentum 0               ... done (    0.003 sec)
  Aux angular momentum 1               ... done (    0.004 sec)
  Aux angular momentum 2               ... done (    0.004 sec)
  Aux angular momentum 3               ... done (    0.003 sec)
  Aux angular momentum 4               ... done (    0.002 sec)
Closing buffer VIA ( 0.00 GB; CompressionRatio= 0.97)
  Phase 1 completed in     0.091 sec
Second Phase: sorting and transformation of aux index

IA-Transformation
Memory available                       ... 256 MB 
Max. # MO pairs treated in a batch     ... 2    
# of internal orbitals                 ... 2
# batches for internal orbitals        ... 1
Closing buffer IAV ( 0.00 GB; CompressionRatio= 1.00)
(ia|v) transformation done in     0.000 sec

  Phase 2 completed in     0.000 sec
RI-Integral transformation completed in     0.091 sec
Opening buffers                              ... done

Starting loop over batches of integrals:

Operator 0  - window                       ... (  5-  8)x(  9- 33)
Operator 0  - Memory available             ...   256 MB
Operator 0  - Memory needed per MO         ...   0.0 MB
Operator 0  - Number of orbitals per batch ... 4
Operator 0  - Number of batches            ... 1

OPERATOR  0   PASS   0:  MOs     5 ...    8
  Reading integrals       ... ok
  Internal MO   7

Operator 1  - window                       ... (  5-  6)x(  7- 33)
Operator 1  - Memory available             ...   256 MB
Operator 1  - Memory needed per MO         ...   0.0 MB
Operator 1  - Number of orbitals per batch ... 2
Operator 1  - Number of batches            ... 1

OPERATOR  1   PASS   0:  MOs     5 ...    6
  Reading integrals       ... ok
Time spent in pair loops =     0.001 sec
Deleting buffer (Ka|jb)[aa] ...done
Deleting buffer (Ka|jb)[ab] ...done
Deleting buffer (Ka|jb)[ba] ...done
Deleting buffer (Ka|jb)[bb] ...done

Correlation energy components}
 E2 and T2 for alpha/alpha pairs :     -0.023945963 Eh      0.000000000
 E2 and T2 for beta/beta   pairs :     -0.003142212 Eh      0.000000000
 E2 and T2 for alpha/beta  pairs :     -0.089443113 Eh      0.000000000


-----------------------------------------------
 RI-MP2 CORRELATION ENERGY:     -0.116531288 Eh
-----------------------------------------------


-------
TIMINGS
-------

Total time                :    0.216 sec
Integral trafo            :    0.203 sec ( 93.8%)
I/O of integrals          :    0.000 sec (  0.0%)
K(i,j) Operators          :    0.000 sec (  0.2%)
T(i,j) pair energies      :    0.000 sec (  0.0%)
V-calculation             :    0.011 sec (  5.2%)
V**(-1/2)                 :    0.001 sec (  0.4%)
Gamma(ia|P)               :    0.000 sec (  0.0%)
Gamma-Trafo               :    0.000 sec (  0.0%)
D(virtual)                :    0.000 sec (  0.0%)
D(internal)               :    0.000 sec (  0.0%)
W(virtual)                :    0.000 sec (  0.0%)
W(internal)               :    0.000 sec (  0.0%)
L(virtual)                :    0.000 sec (  0.0%)
L(internal)               :    0.000 sec (  0.0%)
G(D)                      :    0.000 sec (  0.0%)
G(Z)                      :    0.000 sec (  0.0%)
Z-Vector Solution         :    0.000 sec (  0.0%)
3-Index Derivative        :    0.000 sec (  0.0%)
2-Index Derivative        :    0.000 sec (  0.0%)
Separable Gradient (RIJ)  :    0.000 sec (  0.0%)
Separable Gradient (COSX) :    0.000 sec (  0.0%)


---------------------------------------
MP2 TOTAL ENERGY:     -397.625697739 Eh
---------------------------------------

-------------------------   --------------------
FINAL SINGLE POINT ENERGY      -397.625697738537
-------------------------   --------------------


                            ***************************************
                            *     ORCA property calculations      *
                            ***************************************


  WARNING: The energy has been calculated at the MP2 level but the densities
           used in the property calculations are still SCF densities
           MP2 response densities have not been calculated 
           use %mp2 Density relaxed end
           or  %mp2 Density unrelaxed end

                                    ---------------------
                                    Active property flags
                                    ---------------------
   (+) Dipole Moment


------------------------------------------------------------------------------
                       ORCA ELECTRIC PROPERTIES CALCULATION
------------------------------------------------------------------------------

Dipole Moment Calculation                       ... on
Quadrupole Moment Calculation                   ... off
Polarizability Calculation                      ... off
GBWName                                         ... S.gbw
Electron density file                           ... S.scfp.tmp

-------------
DIPOLE MOMENT
-------------
                                X             Y             Z
Electronic contribution:     -0.00000      -0.00000      -0.00000
Nuclear contribution   :      0.00000       0.00000       0.00000
                        -----------------------------------------
Total Dipole Moment    :     -0.00000      -0.00000      -0.00000
                        -----------------------------------------
Magnitude (a.u.)       :      0.00000
Magnitude (Debye)      :      0.00000


Timings for individual modules:

Sum of individual times         ...        4.997 sec (=   0.083 min)
GTO integral calculation        ...        0.225 sec (=   0.004 min)   4.5 %
SCF iterations                  ...        4.453 sec (=   0.074 min)  89.1 %
MP2 module                      ...        0.318 sec (=   0.005 min)   6.4 %
                             ****ORCA TERMINATED NORMALLY****
TOTAL RUN TIME: 0 days 0 hours 0 minutes 5 seconds 141 msec
