
                                 *****************
                                 * O   R   C   A *
                                 *****************

           --- An Ab Initio, DFT and Semiempirical electronic structure package ---

                  #######################################################
                  #                        -***-                        #
                  #  Department of molecular theory and spectroscopy    #
                  #              Directorship: Frank Neese              #
                  # Max Planck Institute for Chemical Energy Conversion #
                  #                  D-45470 Muelheim/Ruhr              #
                  #                       Germany                       #
                  #                                                     #
                  #                  All rights reserved                #
                  #                        -***-                        #
                  #######################################################


                         Program Version 3.0.2 -  RELEASE  -


 With contributions from (in alphabetic order):
   Ute Becker             : Parallelization
   Dmytro Bykov           : SCF Hessian
   Dmitry Ganyushin       : Spin-Orbit,Spin-Spin,Magnetic field MRCI
   Andreas Hansen         : Spin unrestricted coupled pair/coupled cluster methods
   Dimitrios Liakos       : Extrapolation schemes; parallel MDCI
   Robert Izsak           : Overlap fitted RIJCOSX, COSX-SCS-MP3
   Christian Kollmar      : KDIIS, OOCD, Brueckner-CCSD(T), CCSD density
   Simone Kossmann        : Meta GGA functionals, TD-DFT gradient, OOMP2, MP2 Hessian
   Taras Petrenko         : DFT Hessian,TD-DFT gradient, ASA and ECA modules, normal mode analysis, Resonance Raman, ABS, FL, XAS/XES, NRVS
   Christoph Reimann      : Effective Core Potentials
   Michael Roemelt        : Restricted open shell CIS
   Christoph Riplinger    : Improved optimizer, TS searches, QM/MM, DLPNO-CCSD
   Barbara Sandhoefer     : DKH picture change effects
   Igor Schapiro          : Molecular dynamics
   Kantharuban Sivalingam : CASSCF convergence, NEVPT2
   Boris Wezisla          : Elementary symmetry handling
   Frank Wennmohs         : Technical directorship


 We gratefully acknowledge several colleagues who have allowed us to
 interface, adapt or use parts of their codes:
   Stefan Grimme, W. Hujo, H. Kruse, T. Risthaus : VdW corrections, initial TS optimization,
                                                   DFT functionals, gCP
   Ed Valeev                                     : LibInt (2-el integral package), F12 methods
   Garnet Chan, S. Sharma, R. Olivares           : DMRG
   Ulf Ekstrom                                   : XCFun DFT Library
   Mihaly Kallay                                 : mrcc  (arbitrary order and MRCC methods)
   Andreas Klamt, Michael Diedenhofen            : otool_cosmo (COSMO solvation model)
   Frank Weinhold                                : gennbo (NPA and NBO analysis)
   Christopher J. Cramer and Donald G. Truhlar   : smd solvation model


 Your calculation uses the libint2 library for the computation of 2-el integrals
 For citations please refer to: http://libint.valeyev.net

 This ORCA versions uses:
   CBLAS   interface :  Fast vector & matrix operations
   LAPACKE interface :  Fast linear algebra routines
   SCALAPACK package :  Parallel linear algebra routines


Your calculation utilizes the basis: Ahlrichs-VDZ
Cite in your paper:
H - Kr: A. Schaefer, H. Horn and R. Ahlrichs, J. Chem. Phys. 97, 2571 (1992).

Your calculation utilizes the basis: Ahlrichs SVPalls1+f
Cite in your paper:
Rb - Xe: A. Schaefer, C. Huber and R. Ahlrichs, J. Chem. Phys. 100, 5829 (1994).

Your calculation utilizes empirical dispersion correction
Cite in your paper:
S.Grimme, S.Ehrlich, L.Goerigk, J Comput Chem, (2011), 32, 1456–1465 
S.Grimme, J.Antony, S.Ehrlich and H.Krieg, J.Chem.Phys., 132, (2010), 154104 
   

================================================================================
                                        WARNINGS
                       Please study these warnings very carefully!
================================================================================
Now building the actual basis set


INFO   : the flag for use of LIBINT has been found!

================================================================================
                                       INPUT FILE
================================================================================
NAME = P.inp
|  1> ! UKS B3LYP d3bj def2-SVP TightSCF Grid4 RI def2-SVP/J RIJCOSX
|  2> * xyz 0 4 
|  3> P  0.0  0.0  0.0
|  4> *
|  5> 
|  6>                          ****END OF INPUT****
================================================================================

                       ****************************
                       * Single Point Calculation *
                       ****************************

---------------------------------
CARTESIAN COORDINATES (ANGSTROEM)
---------------------------------
  P      0.000000    0.000000    0.000000

----------------------------
CARTESIAN COORDINATES (A.U.)
----------------------------
  NO LB      ZA    FRAG    MASS        X           Y           Z
   0 P    15.0000    0    30.974          0.000000000000000          0.000000000000000          0.000000000000000

--------------------------------
INTERNAL COORDINATES (ANGSTROEM)
--------------------------------
 P      0   0   0   0.000000     0.000     0.000

---------------------------
INTERNAL COORDINATES (A.U.)
---------------------------
 P      0   0   0   0.000000     0.000     0.000

---------------------
BASIS SET INFORMATION
---------------------
There are 1 groups of distinct atoms

 Group   1 Type P   : 10s7p1d contracted to 4s3p1d pattern {5311/511/1}

Atom   0P    basis set group =>   1
-------------------------------
AUXILIARY BASIS SET INFORMATION
-------------------------------
There are 1 groups of distinct atoms

 Group   1 Type P   : 14s5p5d2f1g contracted to 8s4p3d1f1g pattern {71111111/2111/311/2/1}

Atom   0P    basis set group =>   1
------------------------------------------------------------------------------
                           ORCA GTO INTEGRAL CALCULATION
                           -- RI-GTO INTEGRALS CHOSEN --
------------------------------------------------------------------------------

                         BASIS SET STATISTICS AND STARTUP INFO

Gaussian basis set:
 # of primitive gaussian shells          ...   18
 # of primitive gaussian functions       ...   36
 # of contracted shells                  ...    8
 # of contracted basis functions         ...   18
 Highest angular momentum                ...    2
 Maximum contraction depth               ...    5
Auxiliary gaussian basis set:
 # of primitive gaussian shells          ...   27
 # of primitive gaussian functions       ...   77
 # of contracted shells                  ...   17
 # of contracted aux-basis functions     ...   51
 Highest angular momentum                ...    4
 Maximum contraction depth               ...    7
Ratio of auxiliary to basis functions    ...  2.83
Integral package used                  ... LIBINT
 One Electron integrals                  ... done
 Ordering auxiliary basis shells         ... done
 Integral threshhold             Thresh  ...  2.500e-11
 Primitive cut-off               TCut    ...  2.500e-12
 Pre-screening matrix                    ... done
 Shell pair data                         ... 
 Ordering of the shell pairs             ... done (   0.000 sec) 36 of 36 pairs
 Determination of significant pairs      ... done (   0.000 sec)
 Creation of shell pair data             ... done (   0.000 sec)
 Storage of shell pair data              ... done (   0.000 sec)
 Shell pair data done in (   0.000 sec)
 Computing two index integrals           ... done
 Cholesky decomposition of the V-matrix  ... done


Timings:
 Total evaluation time                   ...   0.126 sec (  0.002 min)
 One electron matrix time                ...   0.004 sec (  0.000 min) =  2.8%
 Schwartz matrix evaluation time         ...   0.085 sec (  0.001 min) = 67.7%
 Two index repulsion integral time       ...   0.000 sec (  0.000 min) =  0.2%
 Cholesky decomposition of V             ...   0.000 sec (  0.000 min) =  0.1%
 Three index repulsion integral time     ...   0.000 sec (  0.000 min) =  0.0%

-------------------------------------------------------------------------------
                                 ORCA SCF
-------------------------------------------------------------------------------

------------
SCF SETTINGS
------------
Hamiltonian:
 Density Functional     Method          .... DFT(GTOs)
 Exchange Functional    Exchange        .... B88
   X-Alpha parameter    XAlpha          ....  0.666667
   Becke's b parameter  XBeta           ....  0.004200
 Correlation Functional Correlation     .... LYP
 LDA part of GGA corr.  LDAOpt          .... VWN-5
 Gradients option       PostSCFGGA      .... off
 Hybrid DFT is turned on
   Fraction HF Exchange ScalHFX         ....  0.200000
   Scaling of DF-GGA-X  ScalDFX         ....  0.720000
   Scaling of DF-GGA-C  ScalDFC         ....  0.810000
   Scaling of DF-LDA-C  ScalLDAC        ....  1.000000
   Perturbative correction              ....  0.000000
   NL short-range parameter             ....  4.800000
 RI-approximation to the Coulomb term is turned on
   Number of auxiliary basis functions  .... 51
   RIJ-COSX (HFX calculated with COS-X)).... on


General Settings:
 Integral files         IntName         .... P
 Hartree-Fock type      HFTyp           .... UHF
 Total Charge           Charge          ....    0
 Multiplicity           Mult            ....    4
 Number of Electrons    NEL             ....   15
 Basis Dimension        Dim             ....   18
 Nuclear Repulsion      ENuc            ....      0.0000000000 Eh

Convergence Acceleration:
 DIIS                   CNVDIIS         .... on
   Start iteration      DIISMaxIt       ....    12
   Startup error        DIISStart       ....  0.200000
   # of expansion vecs  DIISMaxEq       ....     5
   Bias factor          DIISBfac        ....   1.050
   Max. coefficient     DIISMaxC        ....  10.000
 Newton-Raphson         CNVNR           .... off
 SOSCF                  CNVSOSCF        .... off
 Level Shifting         CNVShift        .... on
   Level shift para.    LevelShift      ....    0.2500
   Turn off err/grad.   ShiftErr        ....    0.0010
 Zerner damping         CNVZerner       .... off
 Static damping         CNVDamp         .... on
   Fraction old density DampFac         ....    0.7000
   Max. Damping (<1)    DampMax         ....    0.9800
   Min. Damping (>=0)   DampMin         ....    0.0000
   Turn off err/grad.   DampErr         ....    0.1000
 Fernandez-Rico         CNVRico         .... off

SCF Procedure:
 Maximum # iterations   MaxIter         ....   125
 SCF integral mode      SCFMode         .... Direct
   Integral package                     .... LIBINT
 Reset frequeny         DirectResetFreq ....    20
 Integral Threshold     Thresh          ....  2.500e-11 Eh
 Primitive CutOff       TCut            ....  2.500e-12 Eh

Convergence Tolerance:
 Convergence Check Mode ConvCheckMode   .... Total+1el-Energy
 Energy Change          TolE            ....  1.000e-08 Eh
 1-El. energy change                    ....  1.000e-05 Eh
 DIIS Error             TolErr          ....  5.000e-07


Diagonalization of the overlap matrix:
Smallest eigenvalue                        ... 1.209e-01
Time for diagonalization                   ...    0.000 sec
Threshold for overlap eigenvalues          ... 1.000e-08
Number of eigenvalues below threshold      ... 0
Time for construction of square roots      ...    0.000 sec
Total time needed                          ...    0.001 sec

-------------------
DFT GRID GENERATION
-------------------

General Integration Accuracy     IntAcc      ...  4.670
Radial Grid Type                 RadialGrid  ... Gauss-Chebyshev
Angular Grid (max. acc.)         AngularGrid ... Lebedev-302
Angular grid pruning method      GridPruning ... 3 (G Style)
Weight generation scheme         WeightScheme... Becke
Basis function cutoff            BFCut       ...    1.0000e-11
Integration weight cutoff        WCut        ...    1.0000e-14
Grids for H and He will be reduced by one unit

# of grid points (after initial pruning)     ...   6846 (   0.0 sec)
# of grid points (after weights+screening)   ...   6846 (   0.0 sec)
Grid point division into batches done        ...    0.1 sec
Reduced shell lists constructed in    0.1 sec

Total number of grid points                  ...     6846
Total number of batches                      ...      107
Average number of points per batch           ...       63
Average number of grid points per atom       ...     6846
Average number of shells per batch           ...     6.05 (75.58%)
Average number of basis functions per batch  ...    14.23 (79.06%)
Average number of large shells per batch     ...     5.72 (94.64%)
Average number of large basis fcns per batch ...    13.65 (95.90%)
Maximum spatial batch extension              ...  27.84, 21.45, 19.56 au
Average spatial batch extension              ...   5.55,  5.26,  5.07 au

Time for grid setup =    0.076 sec

------------------------------
INITIAL GUESS: MODEL POTENTIAL
------------------------------
Loading Hartree-Fock densities                     ... done
Calculating cut-offs                               ... done
Setting up the integral package                    ... done
Initializing the effective Hamiltonian             ... done
Starting the Coulomb interaction                   ... done (   0.0 sec)
Reading the grid                                   ... done
Mapping shells                                     ... done
Starting the XC term evaluation                    ... done (   0.0 sec)
  promolecular density results
     # of electrons  =     14.999999473
     EX              =    -22.533721871
     EC              =     -0.594379762
     EX+EC           =    -23.128101633
Transforming the Hamiltonian                       ... done (   0.0 sec)
Diagonalizing the Hamiltonian                      ... done (   0.0 sec)
Back transforming the eigenvectors                 ... done (   0.0 sec)
Now organizing SCF variables                       ... done
                      ------------------
                      INITIAL GUESS DONE (   0.2 sec)
                      ------------------
--------------------
COSX GRID GENERATION
--------------------

General Integration Accuracy     IntAcc      ...  3.340
Radial Grid Type                 RadialGrid  ... Gauss-Chebyshev
Angular Grid (max. acc.)         AngularGrid ... Lebedev-50
Angular grid pruning method      GridPruning ... 3 (G Style)
Weight generation scheme         WeightScheme... Becke
Basis function cutoff            BFCut       ...    1.0000e-11
Integration weight cutoff        WCut        ...    1.0000e-14
Grids for H and He will be reduced by one unit

# of grid points (after initial pruning)     ...    706 (   0.0 sec)
# of grid points (after weights+screening)   ...    706 (   0.0 sec)
Grid point division into batches done        ...    0.0 sec
Reduced shell lists constructed in    0.0 sec

Total number of grid points                  ...      706
Total number of batches                      ...       12
Average number of points per batch           ...       58
Average number of grid points per atom       ...      706
Average number of shells per batch           ...     7.08 (88.46%)
Average number of basis functions per batch  ...    16.31 (90.60%)
Average number of large shells per batch     ...     6.62 (93.48%)
Average number of large basis fcns per batch ...    15.54 (95.28%)
Maximum spatial batch extension              ...  22.63, 27.71, 27.71 au
Average spatial batch extension              ...   8.55, 12.28, 13.26 au

Overlap Fitting                  UseSFitting ... on
Constructing numerical overlap ... done (      0.0 sec)
Inverting numerical overlap    ... done (      0.0 sec)
Obtaining analytic overlap     ... done (      0.0 sec)
Final contraction and storage  ... done (      0.0 sec)


General Integration Accuracy     IntAcc      ...  3.670
Radial Grid Type                 RadialGrid  ... Gauss-Chebyshev
Angular Grid (max. acc.)         AngularGrid ... Lebedev-50
Angular grid pruning method      GridPruning ... 3 (G Style)
Weight generation scheme         WeightScheme... Becke
Basis function cutoff            BFCut       ...    1.0000e-11
Integration weight cutoff        WCut        ...    1.0000e-14
Grids for H and He will be reduced by one unit

# of grid points (after initial pruning)     ...    846 (   0.0 sec)
# of grid points (after weights+screening)   ...    846 (   0.0 sec)
Grid point division into batches done        ...    0.0 sec
Reduced shell lists constructed in    0.0 sec

Total number of grid points                  ...      846
Total number of batches                      ...       14
Average number of points per batch           ...       60
Average number of grid points per atom       ...      846
Average number of shells per batch           ...     7.07 (88.33%)
Average number of basis functions per batch  ...    16.40 (91.11%)
Average number of large shells per batch     ...     6.80 (96.23%)
Average number of large basis fcns per batch ...    15.87 (96.75%)
Maximum spatial batch extension              ...  24.23, 29.68, 29.68 au
Average spatial batch extension              ...   8.28, 11.74, 12.66 au

Overlap Fitting                  UseSFitting ... on
Constructing numerical overlap ... done (      0.0 sec)
Inverting numerical overlap    ... done (      0.0 sec)
Obtaining analytic overlap     ... done (      0.0 sec)
Final contraction and storage  ... done (      0.0 sec)


General Integration Accuracy     IntAcc      ...  4.010
Radial Grid Type                 RadialGrid  ... Gauss-Chebyshev
Angular Grid (max. acc.)         AngularGrid ... Lebedev-110
Angular grid pruning method      GridPruning ... 3 (G Style)
Weight generation scheme         WeightScheme... Becke
Basis function cutoff            BFCut       ...    1.0000e-11
Integration weight cutoff        WCut        ...    1.0000e-14
Grids for H and He will be reduced by one unit

# of grid points (after initial pruning)     ...   1632 (   0.0 sec)
# of grid points (after weights+screening)   ...   1632 (   0.0 sec)
Grid point division into batches done        ...    0.0 sec
Reduced shell lists constructed in    0.0 sec

Total number of grid points                  ...     1632
Total number of batches                      ...       26
Average number of points per batch           ...       62
Average number of grid points per atom       ...     1632
Average number of shells per batch           ...     6.74 (84.26%)
Average number of basis functions per batch  ...    15.93 (88.48%)
Average number of large shells per batch     ...     6.52 (96.70%)
Average number of large basis fcns per batch ...    15.70 (98.60%)
Maximum spatial batch extension              ...  16.97, 31.36, 31.36 au
Average spatial batch extension              ...   8.59, 10.10, 11.40 au

Overlap Fitting                  UseSFitting ... on
Constructing numerical overlap ... done (      0.0 sec)
Inverting numerical overlap    ... done (      0.0 sec)
Obtaining analytic overlap     ... done (      0.0 sec)
Final contraction and storage  ... done (      0.0 sec)

Time for X-Grid setup             =    0.179 sec
--------------
SCF ITERATIONS
--------------
ITER       Energy         Delta-E        Max-DP      RMS-DP      [F,P]     Damp
               ***  Starting incremental Fock matrix formation  ***
  0   -341.1089935283   0.000000000000 0.00873162  0.00051581  0.0200209 0.7000
  1   -341.1091684456  -0.000174917293 0.00907459  0.00050464  0.0134814 0.7000
                               ***Turning on DIIS***
  2   -341.1092948255  -0.000126379910 0.02597467  0.00137954  0.0088506 0.0000
  3   -341.1095955085  -0.000300682926 0.00622738  0.00030974  0.0012745 0.0000
  4   -341.1096020666  -0.000006558076 0.00267974  0.00013633  0.0002366 0.0000
               *** Restarting incremental Fock matrix formation ***
                                   *** Resetting DIIS ***
  5   -341.1096026741  -0.000000607597 0.00031140  0.00001506  0.0000272 0.0000
  6   -341.1096026809  -0.000000006727 0.00002584  0.00000180  0.0000061 0.0000
                 **** Energy Check signals convergence ****

               *****************************************************
               *                     SUCCESS                       *
               *           SCF CONVERGED AFTER   7 CYCLES          *
               *****************************************************

Setting up the final grid:

General Integration Accuracy     IntAcc      ...  5.010
Radial Grid Type                 RadialGrid  ... Gauss-Chebyshev
Angular Grid (max. acc.)         AngularGrid ... Lebedev-434
Angular grid pruning method      GridPruning ... 3 (G Style)
Weight generation scheme         WeightScheme... Becke
Basis function cutoff            BFCut       ...    1.0000e-11
Integration weight cutoff        WCut        ...    1.0000e-14
Grids for H and He will be reduced by one unit

# of grid points (after initial pruning)     ...  11632 (   0.0 sec)
# of grid points (after weights+screening)   ...  11632 (   0.0 sec)
Grid point division into batches done        ...    0.2 sec
Reduced shell lists constructed in    0.2 sec

Total number of grid points                  ...    11632
Total number of batches                      ...      182
Average number of points per batch           ...       63
Average number of grid points per atom       ...    11632
Average number of shells per batch           ...     5.95 (74.32%)
Average number of basis functions per batch  ...    14.09 (78.26%)
Average number of large shells per batch     ...     5.57 (93.66%)
Average number of large basis fcns per batch ...    13.25 (94.07%)
Maximum spatial batch extension              ...  20.58, 20.58, 20.58 au
Average spatial batch extension              ...   4.71,  4.66,  4.61 au

Final grid set up in    0.2 sec
Final integration                            ... done (   0.1 sec)
Change in XC energy                          ...    -0.000024841
Integrated number of electrons               ...    15.000000365
Previous integrated no of electrons          ...    15.000004388
Old exchange energy                            =     -4.527071974 Eh
New exchange energy                            =     -4.526725019 Eh
Exchange energy change after final integration =      0.000346955 Eh
Total energy after final integration           =   -341.109280570 Eh
Final COS-X integration done in                =     0.090 sec

----------------
TOTAL SCF ENERGY
----------------

Total Energy       :         -341.10928057 Eh           -9282.05541 eV

Components:
Nuclear Repulsion  :            0.00000000 Eh               0.00000 eV
Electronic Energy  :         -341.10928057 Eh           -9282.05541 eV

One Electron Energy:         -471.52235622 Eh          -12830.77562 eV
Two Electron Energy:          130.41307565 Eh            3548.72020 eV

Virial components:
Potential Energy   :         -681.46008953 Eh          -18543.47177 eV
Kinetic Energy     :          340.35080896 Eh            9261.41635 eV
Virial Ratio       :            2.00222850


DFT components:
N(Alpha)           :        9.000000182632 electrons
N(Beta)            :        6.000000182721 electrons
N(Total)           :       15.000000365354 electrons
E(X)               :      -17.948975347117 Eh       
E(C)               :       -0.672304167825 Eh       
E(XC)              :      -18.621279514941 Eh       

---------------
SCF CONVERGENCE
---------------

  Last Energy change         ...   -3.1500e-09  Tolerance :   1.0000e-08
  Last MAX-Density change    ...    0.0000e+00  Tolerance :   1.0000e-07
  Last RMS-Density change    ...    0.0000e+00  Tolerance :   5.0000e-09
  Last DIIS Error            ...    1.2928e-06  Tolerance :   5.0000e-07

             **** THE GBW FILE WAS UPDATED (P.gbw) ****
             **** DENSITY FILE WAS UPDATED (P.scfp.tmp) ****
             **** ENERGY FILE WAS UPDATED (P.en.tmp) ****
----------------------
UHF SPIN CONTAMINATION
----------------------

Warning: in a DFT calculation there is little theoretical justification to 
         calculate <S**2> as in Hartree-Fock theory. We will do it anyways
         but you should keep in mind that the values have only limited relevance

Expectation value of <S**2>     :     3.750313
Ideal value S*(S+1) for S=1.5   :     3.750000
Deviation                       :     0.000313

----------------
ORBITAL ENERGIES
----------------
                 SPIN UP ORBITALS
  NO   OCC          E(Eh)            E(eV) 
   0   1.0000     -77.073818     -2097.2852 
   1   1.0000      -6.572774      -178.8543 
   2   1.0000      -4.739880      -128.9787 
   3   1.0000      -4.739880      -128.9787 
   4   1.0000      -4.739880      -128.9787 
   5   1.0000      -0.586545       -15.9607 
   6   1.0000      -0.250262        -6.8100 
   7   1.0000      -0.250262        -6.8100 
   8   1.0000      -0.250262        -6.8100 
   9   0.0000       0.225922         6.1476 
  10   0.0000       0.519344        14.1321 
  11   0.0000       0.519344        14.1321 
  12   0.0000       0.519344        14.1321 
  13   0.0000       0.519344        14.1321 
  14   0.0000       0.519344        14.1321 
  15   0.0000       0.528880        14.3915 
  16   0.0000       0.528880        14.3915 
  17   0.0000       0.528880        14.3915 

                 SPIN DOWN ORBITALS
  NO   OCC          E(Eh)            E(eV) 
   0   1.0000     -77.061329     -2096.9454 
   1   1.0000      -6.560076      -178.5087 
   2   1.0000      -4.720919      -128.4627 
   3   1.0000      -4.720919      -128.4627 
   4   1.0000      -4.720919      -128.4627 
   5   1.0000      -0.468805       -12.7568 
   6   0.0000      -0.100787        -2.7426 
   7   0.0000      -0.100787        -2.7426 
   8   0.0000      -0.100787        -2.7426 
   9   0.0000       0.263970         7.1830 
  10   0.0000       0.586079        15.9480 
  11   0.0000       0.586079        15.9480 
  12   0.0000       0.586079        15.9480 
  13   0.0000       0.621087        16.9006 
  14   0.0000       0.621087        16.9006 
  15   0.0000       0.621087        16.9006 
  16   0.0000       0.621087        16.9006 
  17   0.0000       0.621087        16.9006 

                    ********************************
                    * MULLIKEN POPULATION ANALYSIS *
                    ********************************

--------------------------------------------
MULLIKEN ATOMIC CHARGES AND SPIN POPULATIONS
--------------------------------------------
   0 P :    0.000000    3.000000
Sum of atomic charges         :    0.0000000
Sum of atomic spin populations:    3.0000000

-----------------------------------------------------
MULLIKEN REDUCED ORBITAL CHARGES AND SPIN POPULATIONS
-----------------------------------------------------
CHARGE
  0 P s       :     6.000000  s :     6.000000
      pz      :     3.000000  p :     9.000000
      px      :     3.000000
      py      :     3.000000
      dz2     :     0.000000  d :     0.000000
      dxz     :     0.000000
      dyz     :     0.000000
      dx2y2   :     0.000000
      dxy     :     0.000000

SPIN
  0 P s       :     0.000000  s :     0.000000
      pz      :     1.000000  p :     3.000000
      px      :     1.000000
      py      :     1.000000
      dz2     :     0.000000  d :     0.000000
      dxz     :     0.000000
      dyz     :     0.000000
      dx2y2   :     0.000000
      dxy     :     0.000000


                     *******************************
                     * LOEWDIN POPULATION ANALYSIS *
                     *******************************

-------------------------------------------
LOEWDIN ATOMIC CHARGES AND SPIN POPULATIONS
-------------------------------------------
   0 P :   -0.000000    3.000000

----------------------------------------------------
LOEWDIN REDUCED ORBITAL CHARGES AND SPIN POPULATIONS
----------------------------------------------------
CHARGE
  0 P s       :     6.000000  s :     6.000000
      pz      :     3.000000  p :     9.000000
      px      :     3.000000
      py      :     3.000000
      dz2     :     0.000000  d :     0.000000
      dxz     :     0.000000
      dyz     :     0.000000
      dx2y2   :     0.000000
      dxy     :     0.000000

SPIN
  0 P s       :     0.000000  s :     0.000000
      pz      :     1.000000  p :     3.000000
      px      :     1.000000
      py      :     1.000000
      dz2     :     0.000000  d :     0.000000
      dxz     :     0.000000
      dyz     :     0.000000
      dx2y2   :     0.000000
      dxy     :     0.000000


                      *****************************
                      * MAYER POPULATION ANALYSIS *
                      *****************************

  NA   - Mulliken gross atomic population
  ZA   - Total nuclear charge
  QA   - Mulliken gross atomic charge
  VA   - Mayer's total valence
  BVA  - Mayer's bonded valence
  FA   - Mayer's free valence

  ATOM       NA         ZA         QA         VA         BVA        FA
  0 P     15.0000    15.0000     0.0000     3.0006     0.0000     3.0006

  Mayer bond orders larger than 0.1


-------
TIMINGS
-------

Total SCF time: 0 days 0 hours 0 min 2 sec 

Total time                  ....       2.653 sec
Sum of individual times     ....       2.734 sec  (103.1%)

Fock matrix formation       ....       2.033 sec  ( 76.6%)
  Coulomb formation         ....       1.659 sec  ( 81.6% of F)
  Split-RI-J                ....       1.059 sec  ( 52.1% of F)
  Chain of spheres X        ....       0.661 sec  ( 32.5% of F)
  COS-X 1 center corr.      ....       0.000 sec  (  0.0% of F)
  XC integration            ....       0.373 sec  ( 18.3% of F)
    Basis function eval.    ....       0.079 sec  ( 21.1% of XC)
    Density eval.           ....       0.078 sec  ( 21.0% of XC)
    XC-Functional eval.     ....       0.157 sec  ( 42.1% of XC)
    XC-Potential eval.      ....       0.047 sec  ( 12.5% of XC)
Diagonalization             ....       0.004 sec  (  0.2%)
Density matrix formation    ....       0.000 sec  (  0.0%)
Population analysis         ....       0.001 sec  (  0.0%)
Initial guess               ....       0.234 sec  (  8.8%)
Orbital Transformation      ....       0.000 sec  (  0.0%)
Orbital Orthonormalization  ....       0.000 sec  (  0.0%)
DIIS solution               ....       0.001 sec  (  0.0%)
Grid generation             ....       0.462 sec  ( 17.4%)


-------------------------------------------------------------------------------
                          DFT DISPERSION CORRECTION                            
                                                                               
                                DFTD3 V2.1  Rev 6                               
                          USING Becke-Johnson damping                          
-------------------------------------------------------------------------------
The default B3LYP functional is recognized
Active option DFTDOPT                   ...         4   

molecular C6(AA) [au] = 191.478015 


            DFT-D V3
 parameters
 s6 scaling factor         :     1.0000 
 a1 scaling factor         :     0.3981 
 s8 scaling factor         :     1.9889 
 a2 scaling factor         :     4.4211 
 ad hoc parameters k1-k3   :    16.0000     1.3333    -4.0000 

 Edisp/kcal,au: -0.000000000000  -0.000000000000 
 E6   /kcal   :  -0.000000000 
 E8   /kcal   :  -0.000000000 
 % E8         :           nan 

-------------------------   ----------------
Dispersion correction           -0.000000000
-------------------------   ----------------


-------------------------   --------------------
FINAL SINGLE POINT ENERGY      -341.109280569995
-------------------------   --------------------


                            ***************************************
                            *     ORCA property calculations      *
                            ***************************************

                                    ---------------------
                                    Active property flags
                                    ---------------------
   (+) Dipole Moment


------------------------------------------------------------------------------
                       ORCA ELECTRIC PROPERTIES CALCULATION
------------------------------------------------------------------------------

Dipole Moment Calculation                       ... on
Quadrupole Moment Calculation                   ... off
Polarizability Calculation                      ... off
GBWName                                         ... P.gbw
Electron density file                           ... P.scfp.tmp

-------------
DIPOLE MOMENT
-------------
                                X             Y             Z
Electronic contribution:      0.00000       0.00000       0.00000
Nuclear contribution   :      0.00000       0.00000       0.00000
                        -----------------------------------------
Total Dipole Moment    :      0.00000       0.00000       0.00000
                        -----------------------------------------
Magnitude (a.u.)       :      0.00000
Magnitude (Debye)      :      0.00000


Timings for individual modules:

Sum of individual times         ...        3.057 sec (=   0.051 min)
GTO integral calculation        ...        0.152 sec (=   0.003 min)   5.0 %
SCF iterations                  ...        2.905 sec (=   0.048 min)  95.0 %
                             ****ORCA TERMINATED NORMALLY****
TOTAL RUN TIME: 0 days 0 hours 0 minutes 3 seconds 270 msec
