
                                 *****************
                                 * O   R   C   A *
                                 *****************

           --- An Ab Initio, DFT and Semiempirical electronic structure package ---

                  #######################################################
                  #                        -***-                        #
                  #  Department of molecular theory and spectroscopy    #
                  #              Directorship: Frank Neese              #
                  # Max Planck Institute for Chemical Energy Conversion #
                  #                  D-45470 Muelheim/Ruhr              #
                  #                       Germany                       #
                  #                                                     #
                  #                  All rights reserved                #
                  #                        -***-                        #
                  #######################################################


                         Program Version 4.0.0.2 - RELEASE -


 With contributions from (in alphabetic order):
   Daniel Aravena         : Magnetic Properties
   Michael Atanasov       : Ab Initio Ligand Field Theory
   Ute Becker             : Parallelization
   Martin Brehm           : Molecular dynamics
   Dmytro Bykov           : SCF Hessian
   Vijay G. Chilkuri      : MRCI spin determinant printing
   Dipayan Datta          : RHF DLPNO-CCSD density
   Achintya Kumar Dutta   : EOM-CC, STEOM-CC
   Dmitry Ganyushin       : Spin-Orbit,Spin-Spin,Magnetic field MRCI
   Yang Guo               : DLPNO-NEVPT2, CIM, IAO-localization
   Andreas Hansen         : Spin unrestricted coupled pair/coupled cluster methods
   Lee Huntington         : MR-EOM, pCC
   Robert Izsak           : Overlap fitted RIJCOSX, COSX-SCS-MP3, EOM
   Christian Kollmar      : KDIIS, OOCD, Brueckner-CCSD(T), CCSD density
   Simone Kossmann        : Meta GGA functionals, TD-DFT gradient, OOMP2, MP2 Hessian
   Martin Krupicka        : AUTO-CI
   Dagmar Lenk            : GEPOL surface
   Dimitrios Liakos       : Extrapolation schemes; parallel MDCI
   Dimitrios Manganas     : ROCIS; embedding schemes
   Dimitrios Pantazis     : SARC Basis sets
   Taras Petrenko         : DFT Hessian,TD-DFT gradient, ASA, ECA, R-Raman, ABS, FL, XAS/XES, NRVS
   Peter Pinski           : DLPNO-MP2
   Christoph Reimann      : Effective Core Potentials
   Marius Retegan         : Local ZFS, SOC
   Christoph Riplinger    : Optimizer, TS searches, QM/MM, DLPNO-CCSD(T), (RO)-DLPNO pert. Triples
   Tobias Risthaus        : Range-separated hybrids, TD-DFT gradient, RPA, STAB
   Michael Roemelt        : Restricted open shell CIS
   Masaaki Saitow         : Open-shell DLPNO
   Barbara Sandhoefer     : DKH picture change effects
   Kantharuban Sivalingam : CASSCF convergence, NEVPT2, FIC-MRCI
   Georgi Stoychev        : AutoAux
   Boris Wezisla          : Elementary symmetry handling
   Frank Wennmohs         : Technical directorship


 We gratefully acknowledge several colleagues who have allowed us to
 interface, adapt or use parts of their codes:
   Stefan Grimme, W. Hujo, H. Kruse,             : VdW corrections, initial TS optimization,
                  C. Bannwarth                     DFT functionals, gCP, sTDA/sTD-DF
   Ed Valeev                                     : LibInt (2-el integral package), F12 methods
   Garnet Chan, S. Sharma, J. Yang, R. Olivares  : DMRG
   Ulf Ekstrom                                   : XCFun DFT Library
   Mihaly Kallay                                 : mrcc  (arbitrary order and MRCC methods)
   Jiri Pittner, Ondrej Demel                    : Mk-CCSD
   Frank Weinhold                                : gennbo (NPA and NBO analysis)
   Christopher J. Cramer and Donald G. Truhlar   : smd solvation model


 Your calculation uses the libint2 library for the computation of 2-el integrals
 For citations please refer to: http://libint.valeyev.net

 This ORCA versions uses:
   CBLAS   interface :  Fast vector & matrix operations
   LAPACKE interface :  Fast linear algebra routines
   SCALAPACK package :  Parallel linear algebra routines


Your calculation utilizes the atom-pairwise dispersion correction
with the Becke-Johnson damping scheme (D3BJ)
Cite in your paper:
S.Grimme, S.Ehrlich, L.Goerigk, J Comput Chem, (2011), 32, 1456–1465 
S.Grimme, J.Antony, S.Ehrlich and H.Krieg, J.Chem.Phys., 132, (2010), 154104 
   

XCFun DFT library Copyright 2009-2010 Ulf Ekstrom and contributors.
See http://admol.org/xcfun for more information. This is free soft-
ware; see the source code for copying conditions. There is ABSOLUTELY
NO WARRANTY; not even for MERCHANTABILITY or FITNESS FOR A PARTICULAR
PURPOSE. For details see the documentation. Scientific users of this 
library should cite U. Ekstrom, L. Visscher, R. Bast, A. J. Thorvald-
sen and K. Ruud; J.Chem.Theor.Comp. 2010, DOI: 10.1021/ct100117s
XCFun Version 0.99 
Your calculation utilizes the basis: def2-TZVP
   F. Weigend and R. Ahlrichs, Phys. Chem. Chem. Phys. 7, 3297 (2005).

Your calculation utilizes the auxiliary basis: def2/J
   F. Weigend, Phys. Chem. Chem. Phys. 8, 1057 (2006).

================================================================================
                                        WARNINGS
                       Please study these warnings very carefully!
================================================================================

Warning: TCutStore was < 0. Adjusted to Thresh (uncritical)

WARNING: Split-RI-J cannot be used together with RIJONX
  ===> : Split-RI-J will be disabled

INFO   : the flag for use of LIBINT has been found!

================================================================================
                                       INPUT FILE
================================================================================
NAME = O.inp
|  1> ! UKS wB97x d3 def2-TZVP TightSCF Grid5 def2/J RIJONX
|  2> * xyz 0 3 
|  3> O  0.0  0.0  0.0
|  4> *
|  5> 
|  6>                          ****END OF INPUT****
================================================================================

                       ****************************
                       * Single Point Calculation *
                       ****************************

---------------------------------
CARTESIAN COORDINATES (ANGSTROEM)
---------------------------------
  O      0.000000    0.000000    0.000000

----------------------------
CARTESIAN COORDINATES (A.U.)
----------------------------
  NO LB      ZA    FRAG     MASS         X           Y           Z
   0 O     8.0000    0    15.999    0.000000    0.000000    0.000000

--------------------------------
INTERNAL COORDINATES (ANGSTROEM)
--------------------------------
 O      0   0   0     0.000000000000     0.00000000     0.00000000

---------------------------
INTERNAL COORDINATES (A.U.)
---------------------------
 O      0   0   0     0.000000000000     0.00000000     0.00000000

---------------------
BASIS SET INFORMATION
---------------------
There are 1 groups of distinct atoms

 Group   1 Type O   : 11s6p2d1f contracted to 5s3p2d1f pattern {62111/411/11/1}

Atom   0O    basis set group =>   1
-------------------------------
AUXILIARY BASIS SET INFORMATION
-------------------------------
There are 1 groups of distinct atoms

 Group   1 Type O   : 12s5p4d2f1g contracted to 6s4p3d1f1g pattern {711111/2111/211/2/1}

Atom   0O    basis set group =>   1
-------------------------
ECP PARAMETER INFORMATION
-------------------------



------------------------------------------------------------------------------
                           ORCA GTO INTEGRAL CALCULATION
                           -- RI-GTO INTEGRALS CHOSEN --
------------------------------------------------------------------------------

                         BASIS SET STATISTICS AND STARTUP INFO

Gaussian basis set:
 # of primitive gaussian shells          ...   20
 # of primitive gaussian functions       ...   46
 # of contracted shells                  ...   11
 # of contracted basis functions         ...   31
 Highest angular momentum                ...    3
 Maximum contraction depth               ...    6
Auxiliary gaussian basis set:
 # of primitive gaussian shells          ...   24
 # of primitive gaussian functions       ...   70
 # of contracted shells                  ...   15
 # of contracted aux-basis functions     ...   49
 Highest angular momentum                ...    4
 Maximum contraction depth               ...    7
Ratio of auxiliary to basis functions    ...  1.58
Integral package used                  ... LIBINT
 One Electron integrals                  
   ECP integrals                         ... done
 Ordering auxiliary basis shells         ... done
 Integral threshhold             Thresh  ...  2.500e-11
 Primitive cut-off               TCut    ...  2.500e-12
 Pre-screening matrix                    ... done
 Shell pair data                         ... 
 Ordering of the shell pairs             ... done (   0.000 sec) 66 of 66 pairs
 Determination of significant pairs      ... done (   0.000 sec)
 Creation of shell pair data             ... done (   0.000 sec)
 Storage of shell pair data              ... done (   0.000 sec)
 Shell pair data done in (   0.000 sec)
 Computing two index integrals           ... done
 Cholesky decomposition of the V-matrix  ... done


Timings:
 Total evaluation time                   ...   0.123 sec (  0.002 min)
 One electron matrix time                ...   0.004 sec (  0.000 min) =  3.0%
 Schwartz matrix evaluation time         ...   0.105 sec (  0.002 min) = 85.0%
 Two index repulsion integral time       ...   0.000 sec (  0.000 min) =  0.1%
 Cholesky decomposition of V             ...   0.000 sec (  0.000 min) =  0.1%
 Three index repulsion integral time     ...   0.000 sec (  0.000 min) =  0.0%

-------------------------------------------------------------------------------
                                 ORCA SCF
-------------------------------------------------------------------------------

------------
SCF SETTINGS
------------
Hamiltonian:
 Density Functional     Method          .... DFT(GTOs)
 Exchange Functional    Exchange        .... WB97X
 Correlation Functional Correlation     .... WB97X
 Gradients option       PostSCFGGA      .... off
 Hybrid DFT is turned on
   Fraction HF Exchange ScalHFX         ....  0.157706
   Scaling of DF-GGA-X  ScalDFX         ....  0.000000
   Scaling of DF-GGA-C  ScalDFC         ....  1.000000
   Scaling of DF-LDA-C  ScalLDAC        ....  1.000000
   Perturbative correction              ....  0.000000
 Long-range corrected/Screened/Range-Separated Hybrid DFT is turned on
   Amount of maximum screened exact exchange              ....  0.842294
   Range separation parameter mu (erf(mu*r12)/r12)        ....  0.300000
 RI-approximation to the Coulomb term is turned on
   Number of auxiliary basis functions  .... 49
   RIJ-ON(X) (HFX calculated with O(N)) .... on


General Settings:
 Integral files         IntName         .... O
 Hartree-Fock type      HFTyp           .... UHF
 Total Charge           Charge          ....    0
 Multiplicity           Mult            ....    3
 Number of Electrons    NEL             ....    8
 Basis Dimension        Dim             ....   31
 Nuclear Repulsion      ENuc            ....      0.0000000000 Eh

Convergence Acceleration:
 DIIS                   CNVDIIS         .... on
   Start iteration      DIISMaxIt       ....    12
   Startup error        DIISStart       ....  0.200000
   # of expansion vecs  DIISMaxEq       ....     5
   Bias factor          DIISBfac        ....   1.050
   Max. coefficient     DIISMaxC        ....  10.000
 Newton-Raphson         CNVNR           .... off
 SOSCF                  CNVSOSCF        .... off
 Level Shifting         CNVShift        .... on
   Level shift para.    LevelShift      ....    0.2500
   Turn off err/grad.   ShiftErr        ....    0.0010
 Zerner damping         CNVZerner       .... off
 Static damping         CNVDamp         .... on
   Fraction old density DampFac         ....    0.7000
   Max. Damping (<1)    DampMax         ....    0.9800
   Min. Damping (>=0)   DampMin         ....    0.0000
   Turn off err/grad.   DampErr         ....    0.1000
 Fernandez-Rico         CNVRico         .... off

SCF Procedure:
 Maximum # iterations   MaxIter         ....   125
 SCF integral mode      SCFMode         .... Direct
   Integral package                     .... LIBINT
 Reset frequeny         DirectResetFreq ....    20
 Integral Threshold     Thresh          ....  2.500e-11 Eh
 Primitive CutOff       TCut            ....  2.500e-12 Eh

Convergence Tolerance:
 Convergence Check Mode ConvCheckMode   .... Total+1el-Energy
 Convergence forced     ConvForced      .... 0
 Energy Change          TolE            ....  1.000e-08 Eh
 1-El. energy change                    ....  1.000e-05 Eh
 DIIS Error             TolErr          ....  5.000e-07


Diagonalization of the overlap matrix:
Smallest eigenvalue                        ... 3.025e-02
Time for diagonalization                   ...    0.001 sec
Threshold for overlap eigenvalues          ... 1.000e-08
Number of eigenvalues below threshold      ... 0
Time for construction of square roots      ...    0.000 sec
Total time needed                          ...    0.001 sec

-------------------
DFT GRID GENERATION
-------------------

General Integration Accuracy     IntAcc      ...  5.010
Radial Grid Type                 RadialGrid  ... Gauss-Chebyshev
Angular Grid (max. acc.)         AngularGrid ... Lebedev-434
Angular grid pruning method      GridPruning ... 3 (G Style)
Weight generation scheme         WeightScheme... Becke
Basis function cutoff            BFCut       ...    1.0000e-11
Integration weight cutoff        WCut        ...    1.0000e-14
Grids for H and He will be reduced by one unit

# of grid points (after initial pruning)     ...  10842 (   0.0 sec)
# of grid points (after weights+screening)   ...  10842 (   0.0 sec)
Grid point division into batches done        ...    0.1 sec
Reduced shell lists constructed in    0.1 sec

Total number of grid points                  ...    10842
Total number of batches                      ...      170
Average number of points per batch           ...       63
Average number of grid points per atom       ...    10842
Average number of shells per batch           ...     8.36 (76.02%)
Average number of basis functions per batch  ...    24.40 (78.70%)
Average number of large shells per batch     ...     7.87 (94.13%)
Average number of large basis fcns per batch ...    23.05 (94.49%)
Maximum spatial batch extension              ...  16.29, 16.29, 16.29 au
Average spatial batch extension              ...   3.83,  3.75,  3.73 au

Time for grid setup =    0.101 sec

------------------------------
INITIAL GUESS: MODEL POTENTIAL
------------------------------
Loading Hartree-Fock densities                     ... done
Calculating cut-offs                               ... done
Setting up the integral package                    ... done
Initializing the effective Hamiltonian             ... done
Starting the Coulomb interaction                   ... done (   0.0 sec)
Reading the grid                                   ... done
Mapping shells                                     ... done
Starting the XC term evaluation                    ... done (   0.0 sec)
  promolecular density results
     # of electrons  =      8.000000459
     EX              =     -8.014607435
     EC              =     -0.245923200
     EX+EC           =     -8.260530635
Transforming the Hamiltonian                       ... done (   0.0 sec)
Diagonalizing the Hamiltonian                      ... done (   0.0 sec)
Back transforming the eigenvectors                 ... done (   0.0 sec)
Now organizing SCF variables                       ... done
                      ------------------
                      INITIAL GUESS DONE (   0.2 sec)
                      ------------------
--------------
SCF ITERATIONS
--------------
ITER       Energy         Delta-E        Max-DP      RMS-DP      [F,P]     Damp
               ***  Starting incremental Fock matrix formation  ***
  0    -75.0688757584   0.000000000000 0.00573771  0.00041466  0.0382764 0.7000
  1    -75.0707585927  -0.001882834309 0.00525774  0.00038770  0.0292003 0.7000
                               ***Turning on DIIS***
  2    -75.0722591368  -0.001500544143 0.01378208  0.00105110  0.0217893 0.0000
  3    -75.0764886136  -0.004229476748 0.00470558  0.00034101  0.0109363 0.0000
  4    -75.0767661058  -0.000277492193 0.00237573  0.00015030  0.0037855 0.0000
  5    -75.0768181706  -0.000052064795 0.00137278  0.00008013  0.0018620 0.0000
  6    -75.0768286393  -0.000010468737 0.00061280  0.00002842  0.0004527 0.0000
  7    -75.0768295210  -0.000000881720 0.00008954  0.00000361  0.0000381 0.0000
  8    -75.0768295385  -0.000000017484 0.00001375  0.00000059  0.0000044 0.0000
                 **** Energy Check signals convergence ****

               *****************************************************
               *                     SUCCESS                       *
               *           SCF CONVERGED AFTER   9 CYCLES          *
               *****************************************************


----------------
TOTAL SCF ENERGY
----------------

Total Energy       :          -75.07682954 Eh           -2042.94439 eV

Components:
Nuclear Repulsion  :            0.00000000 Eh               0.00000 eV
Electronic Energy  :          -75.07682954 Eh           -2042.94439 eV
One Electron Energy:         -103.23316549 Eh           -2809.11725 eV
Two Electron Energy:           28.15633595 Eh             766.17285 eV

Virial components:
Potential Energy   :         -149.98188310 Eh           -4081.21452 eV
Kinetic Energy     :           74.90505357 Eh            2038.27013 eV
Virial Ratio       :            2.00229325


DFT components:
N(Alpha)           :        5.000000167020 electrons
N(Beta)            :        3.000000166792 electrons
N(Total)           :        8.000000333812 electrons
E(XC)              :       -6.085865271859 Eh       

---------------
SCF CONVERGENCE
---------------

  Last Energy change         ...   -5.0495e-10  Tolerance :   1.0000e-08
  Last MAX-Density change    ...    1.7990e-06  Tolerance :   1.0000e-07
  Last RMS-Density change    ...    9.4558e-08  Tolerance :   5.0000e-09
  Last DIIS Error            ...    3.8327e-07  Tolerance :   5.0000e-07

             **** THE GBW FILE WAS UPDATED (O.gbw) ****
             **** DENSITY FILE WAS UPDATED (O.scfp.tmp) ****
             **** ENERGY FILE WAS UPDATED (O.en.tmp) ****
----------------------
UHF SPIN CONTAMINATION
----------------------

Warning: in a DFT calculation there is little theoretical justification to 
         calculate <S**2> as in Hartree-Fock theory. We will do it anyways
         but you should keep in mind that the values have only limited relevance

Expectation value of <S**2>     :     2.004858
Ideal value S*(S+1) for S=1.0   :     2.000000
Deviation                       :     0.004858

----------------
ORBITAL ENERGIES
----------------
                 SPIN UP ORBITALS
  NO   OCC          E(Eh)            E(eV) 
   0   1.0000     -19.332474      -526.0634 
   1   1.0000      -1.142023       -31.0760 
   2   1.0000      -0.569605       -15.4997 
   3   1.0000      -0.569605       -15.4997 
   4   1.0000      -0.497720       -13.5437 
   5   0.0000       0.435246        11.8436 
   6   0.0000       0.503142        13.6912 
   7   0.0000       0.503142        13.6912 
   8   0.0000       0.517587        14.0843 
   9   0.0000       1.478833        40.2411 
  10   0.0000       1.478833        40.2411 
  11   0.0000       1.517708        41.2989 
  12   0.0000       1.517708        41.2989 
  13   0.0000       1.532601        41.7042 
  14   0.0000       2.525398        68.7196 
  15   0.0000       2.525398        68.7196 
  16   0.0000       2.579835        70.2009 
  17   0.0000       2.627742        71.5045 
  18   0.0000       5.080050       138.2352 
  19   0.0000       5.080050       138.2352 
  20   0.0000       5.122431       139.3884 
  21   0.0000       5.122431       139.3884 
  22   0.0000       5.149020       140.1120 
  23   0.0000       5.149020       140.1120 
  24   0.0000       5.157873       140.3528 
  25   0.0000       6.105114       166.1286 
  26   0.0000       6.105114       166.1286 
  27   0.0000       6.162343       167.6859 
  28   0.0000       6.162343       167.6859 
  29   0.0000       6.183693       168.2668 
  30   0.0000      42.630578      1160.0370 

                 SPIN DOWN ORBITALS
  NO   OCC          E(Eh)            E(eV) 
   0   1.0000     -19.294511      -525.0303 
   1   1.0000      -0.971696       -26.4412 
   2   1.0000      -0.441204       -12.0058 
   3   0.0000      -0.064598        -1.7578 
   4   0.0000      -0.064597        -1.7578 
   5   0.0000       0.450673        12.2634 
   6   0.0000       0.530107        14.4249 
   7   0.0000       0.555945        15.1280 
   8   0.0000       0.555945        15.1280 
   9   0.0000       1.570405        42.7329 
  10   0.0000       1.570899        42.7463 
  11   0.0000       1.570899        42.7463 
  12   0.0000       1.572658        42.7942 
  13   0.0000       1.572658        42.7942 
  14   0.0000       2.616256        71.1919 
  15   0.0000       2.656745        72.2937 
  16   0.0000       2.656746        72.2937 
  17   0.0000       2.714850        73.8748 
  18   0.0000       5.228601       142.2775 
  19   0.0000       5.228602       142.2775 
  20   0.0000       5.228731       142.2810 
  21   0.0000       5.228732       142.2810 
  22   0.0000       5.230006       142.3157 
  23   0.0000       5.237587       142.5220 
  24   0.0000       5.237587       142.5220 
  25   0.0000       6.278160       170.8374 
  26   0.0000       6.278162       170.8375 
  27   0.0000       6.298408       171.3884 
  28   0.0000       6.331901       172.2998 
  29   0.0000       6.331905       172.2999 
  30   0.0000      42.694352      1161.7724 

                    ********************************
                    * MULLIKEN POPULATION ANALYSIS *
                    ********************************

--------------------------------------------
MULLIKEN ATOMIC CHARGES AND SPIN POPULATIONS
--------------------------------------------
   0 O :   -0.000000    2.000000
Sum of atomic charges         :   -0.0000000
Sum of atomic spin populations:    2.0000000

-----------------------------------------------------
MULLIKEN REDUCED ORBITAL CHARGES AND SPIN POPULATIONS
-----------------------------------------------------
CHARGE
  0 O s       :     3.999548  s :     3.999548
      pz      :     1.975473  p :     3.999844
      px      :     1.000867
      py      :     1.023504
      dz2     :     0.000420  d :     0.000452
      dxz     :     0.000001
      dyz     :     0.000031
      dx2y2   :     0.000000
      dxy     :     0.000000
      f0      :     0.000065  f :     0.000156
      f+1     :     0.000041
      f-1     :     0.000045
      f+2     :     0.000003
      f-2     :     0.000003
      f+3     :     0.000000
      f-3     :     0.000000

SPIN
  0 O s       :    -0.000252  s :    -0.000252
      pz      :     0.024392  p :     1.999845
      px      :     0.999046
      py      :     0.976408
      dz2     :     0.000233  d :     0.000252
      dxz     :     0.000001
      dyz     :     0.000017
      dx2y2   :     0.000000
      dxy     :     0.000000
      f0      :     0.000064  f :     0.000155
      f+1     :     0.000041
      f-1     :     0.000044
      f+2     :     0.000003
      f-2     :     0.000003
      f+3     :     0.000000
      f-3     :     0.000000


                     *******************************
                     * LOEWDIN POPULATION ANALYSIS *
                     *******************************

-------------------------------------------
LOEWDIN ATOMIC CHARGES AND SPIN POPULATIONS
-------------------------------------------
   0 O :   -0.000000    2.000000

----------------------------------------------------
LOEWDIN REDUCED ORBITAL CHARGES AND SPIN POPULATIONS
----------------------------------------------------
CHARGE
  0 O s       :     3.999548  s :     3.999548
      pz      :     1.975473  p :     3.999844
      px      :     1.000867
      py      :     1.023504
      dz2     :     0.000420  d :     0.000452
      dxz     :     0.000001
      dyz     :     0.000031
      dx2y2   :     0.000000
      dxy     :     0.000000
      f0      :     0.000065  f :     0.000156
      f+1     :     0.000041
      f-1     :     0.000045
      f+2     :     0.000003
      f-2     :     0.000003
      f+3     :     0.000000
      f-3     :     0.000000

SPIN
  0 O s       :    -0.000252  s :    -0.000252
      pz      :     0.024392  p :     1.999845
      px      :     0.999046
      py      :     0.976408
      dz2     :     0.000233  d :     0.000252
      dxz     :     0.000001
      dyz     :     0.000017
      dx2y2   :     0.000000
      dxy     :     0.000000
      f0      :     0.000064  f :     0.000155
      f+1     :     0.000041
      f-1     :     0.000044
      f+2     :     0.000003
      f-2     :     0.000003
      f+3     :     0.000000
      f-3     :     0.000000


                      *****************************
                      * MAYER POPULATION ANALYSIS *
                      *****************************

  NA   - Mulliken gross atomic population
  ZA   - Total nuclear charge
  QA   - Mulliken gross atomic charge
  VA   - Mayer's total valence
  BVA  - Mayer's bonded valence
  FA   - Mayer's free valence

  ATOM       NA         ZA         QA         VA         BVA        FA
  0 O      8.0000     8.0000    -0.0000     2.0097     0.0000     2.0097

  Mayer bond orders larger than 0.1


-------
TIMINGS
-------

Total SCF time: 0 days 0 hours 0 min 2 sec 

Total time                  ....       2.896 sec
Sum of individual times     ....       2.892 sec  ( 99.8%)

Fock matrix formation       ....       2.663 sec  ( 92.0%)
  XC integration            ....       0.618 sec  ( 23.2% of F)
    Basis function eval.    ....       0.161 sec  ( 26.1% of XC)
    Density eval.           ....       0.068 sec  ( 11.0% of XC)
    XC-Functional eval.     ....       0.289 sec  ( 46.8% of XC)
    XC-Potential eval.      ....       0.081 sec  ( 13.1% of XC)
Diagonalization             ....       0.009 sec  (  0.3%)
Density matrix formation    ....       0.000 sec  (  0.0%)
Population analysis         ....       0.001 sec  (  0.0%)
Initial guess               ....       0.116 sec  (  4.0%)
Orbital Transformation      ....       0.000 sec  (  0.0%)
Orbital Orthonormalization  ....       0.000 sec  (  0.0%)
DIIS solution               ....       0.001 sec  (  0.0%)
Grid generation             ....       0.101 sec  (  3.5%)
  Warning: (DFTVDWD): Non-parameterized functional used for dispersion correction ! 

  Warning: (D3BJ): Non-parameterized functional used for dispersion correction !



-------------------------------------------------------------------------------
                          DFT DISPERSION CORRECTION                            
                                                                               
                              DFTD3 V3.1  Rev 1                                
                          USING Becke-Johnson damping                          
-------------------------------------------------------------------------------
Active option DFTDOPT                   ...         4   

molecular C6(AA) [au] = 15.451431 


            DFT-D V3
 parameters
 s6 scaling factor         :     1.0000 
 a1 scaling factor         :     0.0000 
 s8 scaling factor         :     0.0000 
 a2 scaling factor         :     0.0000 
 ad hoc parameters k1-k3   :    16.0000     1.3333    -4.0000 

 Edisp/kcal,au: -0.000000000000  -0.000000000000 
 E6   /kcal   :  -0.000000000 
 E8   /kcal   :  -0.000000000 
 % E8         :           nan 

-------------------------   ----------------
Dispersion correction           -0.000000000
-------------------------   ----------------


-------------------------   --------------------
FINAL SINGLE POINT ENERGY       -75.076829539026
-------------------------   --------------------


                            ***************************************
                            *     ORCA property calculations      *
                            ***************************************

                                    ---------------------
                                    Active property flags
                                    ---------------------
   (+) Dipole Moment


------------------------------------------------------------------------------
                       ORCA ELECTRIC PROPERTIES CALCULATION
------------------------------------------------------------------------------

Dipole Moment Calculation                       ... on
Quadrupole Moment Calculation                   ... off
Polarizability Calculation                      ... off
GBWName                                         ... O.gbw
Electron density file                           ... O.scfp.tmp

-------------
DIPOLE MOMENT
-------------
                                X             Y             Z
Electronic contribution:     -0.00000      -0.00000       0.00000
Nuclear contribution   :      0.00000       0.00000       0.00000
                        -----------------------------------------
Total Dipole Moment    :     -0.00000      -0.00000       0.00000
                        -----------------------------------------
Magnitude (a.u.)       :      0.00000
Magnitude (Debye)      :      0.00000


Timings for individual modules:

Sum of individual times         ...        3.060 sec (=   0.051 min)
GTO integral calculation        ...        0.150 sec (=   0.002 min)   4.9 %
SCF iterations                  ...        2.910 sec (=   0.049 min)  95.1 %
                             ****ORCA TERMINATED NORMALLY****
TOTAL RUN TIME: 0 days 0 hours 0 minutes 3 seconds 251 msec
