
                                 *****************
                                 * O   R   C   A *
                                 *****************

           --- An Ab Initio, DFT and Semiempirical electronic structure package ---

                  #######################################################
                  #                        -***-                        #
                  #  Department of molecular theory and spectroscopy    #
                  #              Directorship: Frank Neese              #
                  # Max Planck Institute for Chemical Energy Conversion #
                  #                  D-45470 Muelheim/Ruhr              #
                  #                       Germany                       #
                  #                                                     #
                  #                  All rights reserved                #
                  #                        -***-                        #
                  #######################################################


                         Program Version 4.0.0.2 - RELEASE -


 With contributions from (in alphabetic order):
   Daniel Aravena         : Magnetic Properties
   Michael Atanasov       : Ab Initio Ligand Field Theory
   Ute Becker             : Parallelization
   Martin Brehm           : Molecular dynamics
   Dmytro Bykov           : SCF Hessian
   Vijay G. Chilkuri      : MRCI spin determinant printing
   Dipayan Datta          : RHF DLPNO-CCSD density
   Achintya Kumar Dutta   : EOM-CC, STEOM-CC
   Dmitry Ganyushin       : Spin-Orbit,Spin-Spin,Magnetic field MRCI
   Yang Guo               : DLPNO-NEVPT2, CIM, IAO-localization
   Andreas Hansen         : Spin unrestricted coupled pair/coupled cluster methods
   Lee Huntington         : MR-EOM, pCC
   Robert Izsak           : Overlap fitted RIJCOSX, COSX-SCS-MP3, EOM
   Christian Kollmar      : KDIIS, OOCD, Brueckner-CCSD(T), CCSD density
   Simone Kossmann        : Meta GGA functionals, TD-DFT gradient, OOMP2, MP2 Hessian
   Martin Krupicka        : AUTO-CI
   Dagmar Lenk            : GEPOL surface
   Dimitrios Liakos       : Extrapolation schemes; parallel MDCI
   Dimitrios Manganas     : ROCIS; embedding schemes
   Dimitrios Pantazis     : SARC Basis sets
   Taras Petrenko         : DFT Hessian,TD-DFT gradient, ASA, ECA, R-Raman, ABS, FL, XAS/XES, NRVS
   Peter Pinski           : DLPNO-MP2
   Christoph Reimann      : Effective Core Potentials
   Marius Retegan         : Local ZFS, SOC
   Christoph Riplinger    : Optimizer, TS searches, QM/MM, DLPNO-CCSD(T), (RO)-DLPNO pert. Triples
   Tobias Risthaus        : Range-separated hybrids, TD-DFT gradient, RPA, STAB
   Michael Roemelt        : Restricted open shell CIS
   Masaaki Saitow         : Open-shell DLPNO
   Barbara Sandhoefer     : DKH picture change effects
   Kantharuban Sivalingam : CASSCF convergence, NEVPT2, FIC-MRCI
   Georgi Stoychev        : AutoAux
   Boris Wezisla          : Elementary symmetry handling
   Frank Wennmohs         : Technical directorship


 We gratefully acknowledge several colleagues who have allowed us to
 interface, adapt or use parts of their codes:
   Stefan Grimme, W. Hujo, H. Kruse,             : VdW corrections, initial TS optimization,
                  C. Bannwarth                     DFT functionals, gCP, sTDA/sTD-DF
   Ed Valeev                                     : LibInt (2-el integral package), F12 methods
   Garnet Chan, S. Sharma, J. Yang, R. Olivares  : DMRG
   Ulf Ekstrom                                   : XCFun DFT Library
   Mihaly Kallay                                 : mrcc  (arbitrary order and MRCC methods)
   Jiri Pittner, Ondrej Demel                    : Mk-CCSD
   Frank Weinhold                                : gennbo (NPA and NBO analysis)
   Christopher J. Cramer and Donald G. Truhlar   : smd solvation model


 Your calculation uses the libint2 library for the computation of 2-el integrals
 For citations please refer to: http://libint.valeyev.net

 This ORCA versions uses:
   CBLAS   interface :  Fast vector & matrix operations
   LAPACKE interface :  Fast linear algebra routines
   SCALAPACK package :  Parallel linear algebra routines


Your calculation utilizes the atom-pairwise dispersion correction
with the Becke-Johnson damping scheme (D3BJ)
Cite in your paper:
S.Grimme, S.Ehrlich, L.Goerigk, J Comput Chem, (2011), 32, 1456–1465 
S.Grimme, J.Antony, S.Ehrlich and H.Krieg, J.Chem.Phys., 132, (2010), 154104 
   

Your calculation utilizes the basis: def2-TZVP
   F. Weigend and R. Ahlrichs, Phys. Chem. Chem. Phys. 7, 3297 (2005).

Your calculation utilizes the auxiliary basis: def2/J
   F. Weigend, Phys. Chem. Chem. Phys. 8, 1057 (2006).

================================================================================
                                        WARNINGS
                       Please study these warnings very carefully!
================================================================================

Warning: TCutStore was < 0. Adjusted to Thresh (uncritical)

INFO   : the flag for use of LIBINT has been found!

================================================================================
                                       INPUT FILE
================================================================================
NAME = Br.inp
|  1> ! UKS b3lyp d3bj def2-TZVP TightSCF Grid4 RI def2/J RIJCOSX
|  2> * xyz 0 2 
|  3> Br 0.0  0.0  0.0
|  4> *
|  5> 
|  6>                          ****END OF INPUT****
================================================================================

                       ****************************
                       * Single Point Calculation *
                       ****************************

---------------------------------
CARTESIAN COORDINATES (ANGSTROEM)
---------------------------------
  Br     0.000000    0.000000    0.000000

----------------------------
CARTESIAN COORDINATES (A.U.)
----------------------------
  NO LB      ZA    FRAG     MASS         X           Y           Z
   0 Br   35.0000    0    79.900    0.000000    0.000000    0.000000

--------------------------------
INTERNAL COORDINATES (ANGSTROEM)
--------------------------------
 Br     0   0   0     0.000000000000     0.00000000     0.00000000

---------------------------
INTERNAL COORDINATES (A.U.)
---------------------------
 Br     0   0   0     0.000000000000     0.00000000     0.00000000

---------------------
BASIS SET INFORMATION
---------------------
There are 1 groups of distinct atoms

 Group   1 Type Br  : 17s13p8d1f contracted to 6s5p4d1f pattern {842111/64111/5111/1}

Atom   0Br   basis set group =>   1
-------------------------------
AUXILIARY BASIS SET INFORMATION
-------------------------------
There are 1 groups of distinct atoms

 Group   1 Type Br  : 19s5p5d3f1g contracted to 8s4p3d2f1g pattern {121111111/2111/311/21/1}

Atom   0Br   basis set group =>   1
-------------------------
ECP PARAMETER INFORMATION
-------------------------



------------------------------------------------------------------------------
                           ORCA GTO INTEGRAL CALCULATION
                           -- RI-GTO INTEGRALS CHOSEN --
------------------------------------------------------------------------------

                         BASIS SET STATISTICS AND STARTUP INFO

Gaussian basis set:
 # of primitive gaussian shells          ...   39
 # of primitive gaussian functions       ...  103
 # of contracted shells                  ...   16
 # of contracted basis functions         ...   48
 Highest angular momentum                ...    3
 Maximum contraction depth               ...    8
Auxiliary gaussian basis set:
 # of primitive gaussian shells          ...   33
 # of primitive gaussian functions       ...   89
 # of contracted shells                  ...   18
 # of contracted aux-basis functions     ...   58
 Highest angular momentum                ...    4
 Maximum contraction depth               ...   12
Ratio of auxiliary to basis functions    ...  1.21
Integral package used                  ... LIBINT
 One Electron integrals                  
   ECP integrals                         ... done
 Ordering auxiliary basis shells         ... done
 Integral threshhold             Thresh  ...  2.500e-11
 Primitive cut-off               TCut    ...  2.500e-12
 Pre-screening matrix                    ... done
 Shell pair data                         ... 
 Ordering of the shell pairs             ... done (   0.000 sec) 136 of 136 pairs
 Determination of significant pairs      ... done (   0.000 sec)
 Creation of shell pair data             ... done (   0.000 sec)
 Storage of shell pair data              ... done (   0.000 sec)
 Shell pair data done in (   0.000 sec)
 Computing two index integrals           ... done
 Cholesky decomposition of the V-matrix  ... done


Timings:
 Total evaluation time                   ...   0.145 sec (  0.002 min)
 One electron matrix time                ...   0.004 sec (  0.000 min) =  3.1%
 Schwartz matrix evaluation time         ...   0.124 sec (  0.002 min) = 85.6%
 Two index repulsion integral time       ...   0.000 sec (  0.000 min) =  0.1%
 Cholesky decomposition of V             ...   0.000 sec (  0.000 min) =  0.1%
 Three index repulsion integral time     ...   0.000 sec (  0.000 min) =  0.0%

-------------------------------------------------------------------------------
                                 ORCA SCF
-------------------------------------------------------------------------------

------------
SCF SETTINGS
------------
Hamiltonian:
 Density Functional     Method          .... DFT(GTOs)
 Exchange Functional    Exchange        .... B88
   X-Alpha parameter    XAlpha          ....  0.666667
   Becke's b parameter  XBeta           ....  0.004200
 Correlation Functional Correlation     .... LYP
 LDA part of GGA corr.  LDAOpt          .... VWN-5
 Gradients option       PostSCFGGA      .... off
 Hybrid DFT is turned on
   Fraction HF Exchange ScalHFX         ....  0.200000
   Scaling of DF-GGA-X  ScalDFX         ....  0.720000
   Scaling of DF-GGA-C  ScalDFC         ....  0.810000
   Scaling of DF-LDA-C  ScalLDAC        ....  1.000000
   Perturbative correction              ....  0.000000
   NL short-range parameter             ....  4.800000
 RI-approximation to the Coulomb term is turned on
   Number of auxiliary basis functions  .... 58
   RIJ-COSX (HFX calculated with COS-X)).... on


General Settings:
 Integral files         IntName         .... Br
 Hartree-Fock type      HFTyp           .... UHF
 Total Charge           Charge          ....    0
 Multiplicity           Mult            ....    2
 Number of Electrons    NEL             ....   35
 Basis Dimension        Dim             ....   48
 Nuclear Repulsion      ENuc            ....      0.0000000000 Eh

Convergence Acceleration:
 DIIS                   CNVDIIS         .... on
   Start iteration      DIISMaxIt       ....    12
   Startup error        DIISStart       ....  0.200000
   # of expansion vecs  DIISMaxEq       ....     5
   Bias factor          DIISBfac        ....   1.050
   Max. coefficient     DIISMaxC        ....  10.000
 Newton-Raphson         CNVNR           .... off
 SOSCF                  CNVSOSCF        .... off
 Level Shifting         CNVShift        .... on
   Level shift para.    LevelShift      ....    0.2500
   Turn off err/grad.   ShiftErr        ....    0.0010
 Zerner damping         CNVZerner       .... off
 Static damping         CNVDamp         .... on
   Fraction old density DampFac         ....    0.7000
   Max. Damping (<1)    DampMax         ....    0.9800
   Min. Damping (>=0)   DampMin         ....    0.0000
   Turn off err/grad.   DampErr         ....    0.1000
 Fernandez-Rico         CNVRico         .... off

SCF Procedure:
 Maximum # iterations   MaxIter         ....   125
 SCF integral mode      SCFMode         .... Direct
   Integral package                     .... LIBINT
 Reset frequeny         DirectResetFreq ....    20
 Integral Threshold     Thresh          ....  2.500e-11 Eh
 Primitive CutOff       TCut            ....  2.500e-12 Eh

Convergence Tolerance:
 Convergence Check Mode ConvCheckMode   .... Total+1el-Energy
 Convergence forced     ConvForced      .... 0
 Energy Change          TolE            ....  1.000e-08 Eh
 1-El. energy change                    ....  1.000e-05 Eh
 DIIS Error             TolErr          ....  5.000e-07


Diagonalization of the overlap matrix:
Smallest eigenvalue                        ... 2.573e-02
Time for diagonalization                   ...    0.001 sec
Threshold for overlap eigenvalues          ... 1.000e-08
Number of eigenvalues below threshold      ... 0
Time for construction of square roots      ...    0.000 sec
Total time needed                          ...    0.001 sec

-------------------
DFT GRID GENERATION
-------------------

General Integration Accuracy     IntAcc      ...  4.670
Radial Grid Type                 RadialGrid  ... Gauss-Chebyshev
Angular Grid (max. acc.)         AngularGrid ... Lebedev-302
Angular grid pruning method      GridPruning ... 3 (G Style)
Weight generation scheme         WeightScheme... Becke
Basis function cutoff            BFCut       ...    1.0000e-11
Integration weight cutoff        WCut        ...    1.0000e-14
Grids for H and He will be reduced by one unit

# of grid points (after initial pruning)     ...   9616 (   0.0 sec)
# of grid points (after weights+screening)   ...   9616 (   0.0 sec)
Grid point division into batches done        ...    0.1 sec
Reduced shell lists constructed in    0.1 sec

Total number of grid points                  ...     9616
Total number of batches                      ...      151
Average number of points per batch           ...       63
Average number of grid points per atom       ...     9616
Average number of shells per batch           ...    12.40 (77.51%)
Average number of basis functions per batch  ...    39.48 (82.25%)
Average number of large shells per batch     ...    11.65 (93.95%)
Average number of large basis fcns per batch ...    37.56 (95.13%)
Maximum spatial batch extension              ...  23.55, 20.85, 16.71 au
Average spatial batch extension              ...   3.73,  3.58,  3.34 au

Time for grid setup =    0.119 sec

------------------------------
INITIAL GUESS: MODEL POTENTIAL
------------------------------
Loading Hartree-Fock densities                     ... done
Calculating cut-offs                               ... done
Setting up the integral package                    ... done
Initializing the effective Hamiltonian             ... done
Starting the Coulomb interaction                   ... done (   0.0 sec)
Reading the grid                                   ... done
Mapping shells                                     ... done
Starting the XC term evaluation                    ... done (   0.1 sec)
  promolecular density results
     # of electrons  =     34.999995904
     EX              =    -89.665372861
     EC              =     -1.692326239
     EX+EC           =    -91.357699100
Transforming the Hamiltonian                       ... done (   0.0 sec)
Diagonalizing the Hamiltonian                      ... done (   0.0 sec)
Back transforming the eigenvectors                 ... done (   0.0 sec)
Now organizing SCF variables                       ... done
                      ------------------
                      INITIAL GUESS DONE (   0.3 sec)
                      ------------------
--------------------
COSX GRID GENERATION
--------------------

General Integration Accuracy     IntAcc      ...  3.340
Radial Grid Type                 RadialGrid  ... Gauss-Chebyshev
Angular Grid (max. acc.)         AngularGrid ... Lebedev-50
Angular grid pruning method      GridPruning ... 3 (G Style)
Weight generation scheme         WeightScheme... Becke
Basis function cutoff            BFCut       ...    1.0000e-11
Integration weight cutoff        WCut        ...    1.0000e-14
Grids for H and He will be reduced by one unit

# of grid points (after initial pruning)     ...   1042 (   0.0 sec)
# of grid points (after weights+screening)   ...   1042 (   0.0 sec)
Grid point division into batches done        ...    0.0 sec
Reduced shell lists constructed in    0.0 sec

Total number of grid points                  ...     1042
Total number of batches                      ...       17
Average number of points per batch           ...       61
Average number of grid points per atom       ...     1042
Average number of shells per batch           ...    13.72 (85.76%)
Average number of basis functions per batch  ...    42.83 (89.24%)
Average number of large shells per batch     ...    13.33 (97.17%)
Average number of large basis fcns per batch ...    42.22 (98.57%)
Maximum spatial batch extension              ...  14.65, 24.28, 24.28 au
Average spatial batch extension              ...   9.08, 10.27, 12.68 au

Overlap Fitting                  UseSFitting ... on
Constructing numerical overlap ... done (      0.0 sec)
Inverting numerical overlap    ... done (      0.0 sec)
Obtaining analytic overlap     ... done (      0.0 sec)
Final contraction and storage  ... done (      0.0 sec)


General Integration Accuracy     IntAcc      ...  3.670
Radial Grid Type                 RadialGrid  ... Gauss-Chebyshev
Angular Grid (max. acc.)         AngularGrid ... Lebedev-50
Angular grid pruning method      GridPruning ... 3 (G Style)
Weight generation scheme         WeightScheme... Becke
Basis function cutoff            BFCut       ...    1.0000e-11
Integration weight cutoff        WCut        ...    1.0000e-14
Grids for H and He will be reduced by one unit

# of grid points (after initial pruning)     ...   1206 (   0.0 sec)
# of grid points (after weights+screening)   ...   1206 (   0.0 sec)
Grid point division into batches done        ...    0.0 sec
Reduced shell lists constructed in    0.0 sec

Total number of grid points                  ...     1206
Total number of batches                      ...       19
Average number of points per batch           ...       63
Average number of grid points per atom       ...     1206
Average number of shells per batch           ...    13.90 (86.88%)
Average number of basis functions per batch  ...    43.70 (91.04%)
Average number of large shells per batch     ...    13.10 (94.24%)
Average number of large basis fcns per batch ...    41.70 (95.42%)
Maximum spatial batch extension              ...  15.77, 25.65, 25.65 au
Average spatial batch extension              ...   8.76,  9.90, 12.06 au

Overlap Fitting                  UseSFitting ... on
Constructing numerical overlap ... done (      0.0 sec)
Inverting numerical overlap    ... done (      0.0 sec)
Obtaining analytic overlap     ... done (      0.0 sec)
Final contraction and storage  ... done (      0.0 sec)


General Integration Accuracy     IntAcc      ...  4.010
Radial Grid Type                 RadialGrid  ... Gauss-Chebyshev
Angular Grid (max. acc.)         AngularGrid ... Lebedev-110
Angular grid pruning method      GridPruning ... 3 (G Style)
Weight generation scheme         WeightScheme... Becke
Basis function cutoff            BFCut       ...    1.0000e-11
Integration weight cutoff        WCut        ...    1.0000e-14
Grids for H and He will be reduced by one unit

# of grid points (after initial pruning)     ...   2582 (   0.0 sec)
# of grid points (after weights+screening)   ...   2582 (   0.0 sec)
Grid point division into batches done        ...    0.0 sec
Reduced shell lists constructed in    0.0 sec

Total number of grid points                  ...     2582
Total number of batches                      ...       41
Average number of points per batch           ...       62
Average number of grid points per atom       ...     2582
Average number of shells per batch           ...    13.43 (83.93%)
Average number of basis functions per batch  ...    42.90 (89.38%)
Average number of large shells per batch     ...    12.55 (93.44%)
Average number of large basis fcns per batch ...    40.26 (93.84%)
Maximum spatial batch extension              ...  26.85, 26.85, 23.67 au
Average spatial batch extension              ...   6.65,  5.97,  6.22 au

Overlap Fitting                  UseSFitting ... on
Constructing numerical overlap ... done (      0.0 sec)
Inverting numerical overlap    ... done (      0.0 sec)
Obtaining analytic overlap     ... done (      0.0 sec)
Final contraction and storage  ... done (      0.0 sec)

Time for X-Grid setup             =    0.134 sec
--------------
SCF ITERATIONS
--------------
ITER       Energy         Delta-E        Max-DP      RMS-DP      [F,P]     Damp
               ***  Starting incremental Fock matrix formation  ***
  0  -2573.9951809852   0.000000000000 0.00622215  0.00034593  0.0852087 0.7000
  1  -2573.9974377382  -0.002256753019 0.00686772  0.00025154  0.0455376 0.7000
                               ***Turning on DIIS***
  2  -2573.9987963815  -0.001358643304 0.01934578  0.00061958  0.0233658 0.0000
  3  -2574.0016887828  -0.002892401246 0.00283560  0.00016665  0.0136144 0.0000
  4  -2574.0018052433  -0.000116460542 0.00100857  0.00004440  0.0025486 0.0000
  5  -2574.0018182737  -0.000013030406 0.00090515  0.00002458  0.0002988 0.0000
               *** Restarting incremental Fock matrix formation ***
                                   *** Resetting DIIS ***
  6  -2574.0018216520  -0.000003378239 0.00063025  0.00002330  0.0020962 0.0000
  7  -2574.0018319406  -0.000010288637 0.00013750  0.00000709  0.0002518 0.0000
  8  -2574.0018323871  -0.000000446482 0.00002412  0.00000106  0.0000178 0.0000
  9  -2574.0018324223  -0.000000035232 0.00000649  0.00000026  0.0000107 0.0000
 10  -2574.0018323999   0.000000022460 0.00000228  0.00000011  0.0000018 0.0000
                            ***DIIS convergence achieved***

               *****************************************************
               *                     SUCCESS                       *
               *           SCF CONVERGED AFTER  11 CYCLES          *
               *****************************************************

Setting up the final grid:

General Integration Accuracy     IntAcc      ...  5.010
Radial Grid Type                 RadialGrid  ... Gauss-Chebyshev
Angular Grid (max. acc.)         AngularGrid ... Lebedev-434
Angular grid pruning method      GridPruning ... 3 (G Style)
Weight generation scheme         WeightScheme... Becke
Basis function cutoff            BFCut       ...    1.0000e-11
Integration weight cutoff        WCut        ...    1.0000e-14
Grids for H and He will be reduced by one unit

# of grid points (after initial pruning)     ...  15974 (   0.0 sec)
# of grid points (after weights+screening)   ...  15974 (   0.0 sec)
Grid point division into batches done        ...    0.2 sec
Reduced shell lists constructed in    0.3 sec

Total number of grid points                  ...    15974
Total number of batches                      ...      250
Average number of points per batch           ...       63
Average number of grid points per atom       ...    15974
Average number of shells per batch           ...    12.23 (76.42%)
Average number of basis functions per batch  ...    38.90 (81.03%)
Average number of large shells per batch     ...    11.52 (94.20%)
Average number of large basis fcns per batch ...    36.90 (94.88%)
Maximum spatial batch extension              ...  17.34, 17.34, 17.34 au
Average spatial batch extension              ...   3.14,  3.18,  3.05 au

Final grid set up in    0.3 sec
Final integration                            ... done (   0.1 sec)
Change in XC energy                          ...    -0.000066447
Integrated number of electrons               ...    34.999999983
Previous integrated no of electrons          ...    35.000000370
Old exchange energy                            =    -17.911369442 Eh
New exchange energy                            =    -17.911204598 Eh
Exchange energy change after final integration =      0.000164843 Eh
Total energy after final integration           =  -2574.001734035 Eh
Final COS-X integration done in                =     0.311 sec

----------------
TOTAL SCF ENERGY
----------------

Total Energy       :        -2574.00173403 Eh          -70042.14806 eV

Components:
Nuclear Repulsion  :            0.00000000 Eh               0.00000 eV
Electronic Energy  :        -2574.00173403 Eh          -70042.14806 eV
One Electron Energy:        -3581.09790474 Eh          -97446.62808 eV
Two Electron Energy:         1007.09617071 Eh           27404.48002 eV

Virial components:
Potential Energy   :        -5144.40250654 Eh         -139986.30897 eV
Kinetic Energy     :         2570.40077251 Eh           69944.16091 eV
Virial Ratio       :            2.00140093


DFT components:
N(Alpha)           :       17.999999991686 electrons
N(Beta)            :       16.999999991627 electrons
N(Total)           :       34.999999983313 electrons
E(X)               :      -71.288612049060 Eh       
E(C)               :       -1.969292482710 Eh       
E(XC)              :      -73.257904531771 Eh       

---------------
SCF CONVERGENCE
---------------

  Last Energy change         ...   -3.1438e-08  Tolerance :   1.0000e-08
  Last MAX-Density change    ...    0.0000e+00  Tolerance :   1.0000e-07
  Last RMS-Density change    ...    0.0000e+00  Tolerance :   5.0000e-09
  Last DIIS Error            ...    1.5321e-07  Tolerance :   5.0000e-07

             **** THE GBW FILE WAS UPDATED (Br.gbw) ****
             **** DENSITY FILE WAS UPDATED (Br.scfp.tmp) ****
             **** ENERGY FILE WAS UPDATED (Br.en.tmp) ****
----------------------
UHF SPIN CONTAMINATION
----------------------

Warning: in a DFT calculation there is little theoretical justification to 
         calculate <S**2> as in Hartree-Fock theory. We will do it anyways
         but you should keep in mind that the values have only limited relevance

Expectation value of <S**2>     :     0.752292
Ideal value S*(S+1) for S=0.5   :     0.750000
Deviation                       :     0.002292

----------------
ORBITAL ENERGIES
----------------
                 SPIN UP ORBITALS
  NO   OCC          E(Eh)            E(eV) 
   0   1.0000    -482.891793    -13140.1537 
   1   1.0000     -62.538752     -1701.7659 
   2   1.0000     -56.356779     -1533.5459 
   3   1.0000     -56.351368     -1533.3987 
   4   1.0000     -56.351368     -1533.3987 
   5   1.0000      -8.729974      -237.5547 
   6   1.0000      -6.566652      -178.6877 
   7   1.0000      -6.545296      -178.1066 
   8   1.0000      -6.545296      -178.1066 
   9   1.0000      -2.678393       -72.8828 
  10   1.0000      -2.673110       -72.7390 
  11   1.0000      -2.673110       -72.7390 
  12   1.0000      -2.657284       -72.3084 
  13   1.0000      -2.657281       -72.3083 
  14   1.0000      -0.794362       -21.6157 
  15   1.0000      -0.370408       -10.0793 
  16   1.0000      -0.322589        -8.7781 
  17   1.0000      -0.322589        -8.7781 
  18   0.0000       0.222088         6.0433 
  19   0.0000       0.240295         6.5388 
  20   0.0000       0.240295         6.5388 
  21   0.0000       0.261506         7.1159 
  22   0.0000       0.269407         7.3309 
  23   0.0000       0.269407         7.3309 
  24   0.0000       0.294678         8.0186 
  25   0.0000       0.294679         8.0186 
  26   0.0000       0.453010        12.3270 
  27   0.0000       1.271198        34.5911 
  28   0.0000       1.280229        34.8368 
  29   0.0000       1.280229        34.8368 
  30   0.0000       1.310480        35.6600 
  31   0.0000       1.310480        35.6600 
  32   0.0000       1.457062        39.6487 
  33   0.0000       1.462815        39.8052 
  34   0.0000       1.462815        39.8052 
  35   0.0000       1.479687        40.2643 
  36   0.0000       1.479687        40.2643 
  37   0.0000       1.508816        41.0570 
  38   0.0000       1.508816        41.0570 
  39   0.0000       1.511526        41.1307 
  40   0.0000       1.547805        42.1179 
  41   0.0000       1.547805        42.1179 
  42   0.0000       3.908944       106.3678 
  43   0.0000       3.918114       106.6173 
  44   0.0000       3.918114       106.6173 
  45   0.0000       3.946363       107.3860 
  46   0.0000       3.946365       107.3860 
  47   0.0000       6.865563       186.8215 

                 SPIN DOWN ORBITALS
  NO   OCC          E(Eh)            E(eV) 
   0   1.0000    -482.889222    -13140.0838 
   1   1.0000     -62.537302     -1701.7265 
   2   1.0000     -56.350999     -1533.3886 
   3   1.0000     -56.350327     -1533.3704 
   4   1.0000     -56.350327     -1533.3704 
   5   1.0000      -8.726002      -237.4466 
   6   1.0000      -6.555546      -178.3855 
   7   1.0000      -6.543595      -178.0603 
   8   1.0000      -6.543595      -178.0603 
   9   1.0000      -2.670435       -72.6662 
  10   1.0000      -2.667030       -72.5736 
  11   1.0000      -2.667030       -72.5736 
  12   1.0000      -2.656424       -72.2850 
  13   1.0000      -2.656422       -72.2849 
  14   1.0000      -0.750759       -20.4292 
  15   1.0000      -0.309421        -8.4198 
  16   1.0000      -0.309421        -8.4198 
  17   0.0000      -0.232109        -6.3160 
  18   0.0000       0.243428         6.6240 
  19   0.0000       0.243428         6.6240 
  20   0.0000       0.245275         6.6743 
  21   0.0000       0.297878         8.1057 
  22   0.0000       0.297878         8.1057 
  23   0.0000       0.299872         8.1599 
  24   0.0000       0.299872         8.1599 
  25   0.0000       0.304330         8.2812 
  26   0.0000       0.468963        12.7611 
  27   0.0000       1.313480        35.7416 
  28   0.0000       1.313480        35.7416 
  29   0.0000       1.314892        35.7800 
  30   0.0000       1.314893        35.7800 
  31   0.0000       1.316340        35.8194 
  32   0.0000       1.508830        41.0574 
  33   0.0000       1.508830        41.0574 
  34   0.0000       1.510296        41.0972 
  35   0.0000       1.510296        41.0972 
  36   0.0000       1.511030        41.1172 
  37   0.0000       1.511030        41.1172 
  38   0.0000       1.512125        41.1470 
  39   0.0000       1.550299        42.1858 
  40   0.0000       1.554593        42.3026 
  41   0.0000       1.554593        42.3026 
  42   0.0000       3.938038       107.1595 
  43   0.0000       3.939369       107.1957 
  44   0.0000       3.939370       107.1957 
  45   0.0000       3.949367       107.4677 
  46   0.0000       3.949368       107.4678 
  47   0.0000       6.877159       187.1370 

                    ********************************
                    * MULLIKEN POPULATION ANALYSIS *
                    ********************************

--------------------------------------------
MULLIKEN ATOMIC CHARGES AND SPIN POPULATIONS
--------------------------------------------
   0 Br:   -0.000000    1.000000
Sum of atomic charges         :   -0.0000000
Sum of atomic spin populations:    1.0000000

-----------------------------------------------------
MULLIKEN REDUCED ORBITAL CHARGES AND SPIN POPULATIONS
-----------------------------------------------------
CHARGE
  0 Brs       :     7.998960  s :     7.998960
      pz      :     5.965895  p :    16.999224
      px      :     5.986356
      py      :     5.046974
      dz2     :     2.000210  d :    10.001040
      dxz     :     2.000001
      dyz     :     2.000101
      dx2y2   :     2.000688
      dxy     :     2.000040
      f0      :     0.000078  f :     0.000776
      f+1     :     0.000011
      f-1     :     0.000132
      f+2     :     0.000141
      f-2     :     0.000026
      f+3     :     0.000196
      f-3     :     0.000191

SPIN
  0 Brs       :    -0.000854  s :    -0.000854
      pz      :     0.033649  p :     0.999224
      px      :     0.013192
      py      :     0.952384
      dz2     :     0.000172  d :     0.000854
      dxz     :     0.000001
      dyz     :     0.000083
      dx2y2   :     0.000565
      dxy     :     0.000033
      f0      :     0.000078  f :     0.000776
      f+1     :     0.000011
      f-1     :     0.000132
      f+2     :     0.000141
      f-2     :     0.000026
      f+3     :     0.000196
      f-3     :     0.000191


                     *******************************
                     * LOEWDIN POPULATION ANALYSIS *
                     *******************************

-------------------------------------------
LOEWDIN ATOMIC CHARGES AND SPIN POPULATIONS
-------------------------------------------
   0 Br:   -0.000000    1.000000

----------------------------------------------------
LOEWDIN REDUCED ORBITAL CHARGES AND SPIN POPULATIONS
----------------------------------------------------
CHARGE
  0 Brs       :     7.998960  s :     7.998960
      pz      :     5.965895  p :    16.999224
      px      :     5.986356
      py      :     5.046974
      dz2     :     2.000210  d :    10.001040
      dxz     :     2.000001
      dyz     :     2.000101
      dx2y2   :     2.000688
      dxy     :     2.000040
      f0      :     0.000078  f :     0.000776
      f+1     :     0.000011
      f-1     :     0.000132
      f+2     :     0.000141
      f-2     :     0.000026
      f+3     :     0.000196
      f-3     :     0.000191

SPIN
  0 Brs       :    -0.000854  s :    -0.000854
      pz      :     0.033649  p :     0.999224
      px      :     0.013192
      py      :     0.952384
      dz2     :     0.000172  d :     0.000854
      dxz     :     0.000001
      dyz     :     0.000083
      dx2y2   :     0.000565
      dxy     :     0.000033
      f0      :     0.000078  f :     0.000776
      f+1     :     0.000011
      f-1     :     0.000132
      f+2     :     0.000141
      f-2     :     0.000026
      f+3     :     0.000196
      f-3     :     0.000191


                      *****************************
                      * MAYER POPULATION ANALYSIS *
                      *****************************

  NA   - Mulliken gross atomic population
  ZA   - Total nuclear charge
  QA   - Mulliken gross atomic charge
  VA   - Mayer's total valence
  BVA  - Mayer's bonded valence
  FA   - Mayer's free valence

  ATOM       NA         ZA         QA         VA         BVA        FA
  0 Br    35.0000    35.0000    -0.0000     1.0046     0.0000     1.0046

  Mayer bond orders larger than 0.1


-------
TIMINGS
-------

Total SCF time: 0 days 0 hours 0 min 5 sec 

Total time                  ....       5.097 sec
Sum of individual times     ....       5.088 sec  ( 99.8%)

Fock matrix formation       ....       4.381 sec  ( 86.0%)
  Split-RI-J                ....       1.139 sec  ( 26.0% of F)
  Chain of spheres X        ....       2.287 sec  ( 52.2% of F)
  COS-X 1 center corr.      ....       0.000 sec  (  0.0% of F)
  XC integration            ....       0.944 sec  ( 21.6% of F)
    Basis function eval.    ....       0.392 sec  ( 41.5% of XC)
    Density eval.           ....       0.128 sec  ( 13.6% of XC)
    XC-Functional eval.     ....       0.158 sec  ( 16.7% of XC)
    XC-Potential eval.      ....       0.239 sec  ( 25.4% of XC)
Diagonalization             ....       0.015 sec  (  0.3%)
Density matrix formation    ....       0.001 sec  (  0.0%)
Population analysis         ....       0.001 sec  (  0.0%)
Initial guess               ....       0.155 sec  (  3.1%)
Orbital Transformation      ....       0.000 sec  (  0.0%)
Orbital Orthonormalization  ....       0.000 sec  (  0.0%)
DIIS solution               ....       0.002 sec  (  0.0%)
Grid generation             ....       0.533 sec  ( 10.5%)


-------------------------------------------------------------------------------
                          DFT DISPERSION CORRECTION                            
                                                                               
                              DFTD3 V3.1  Rev 1                                
                          USING Becke-Johnson damping                          
-------------------------------------------------------------------------------
The B3LYP functional is recognized
Active option DFTDOPT                   ...         4   

molecular C6(AA) [au] = 167.168230 


            DFT-D V3
 parameters
 s6 scaling factor         :     1.0000 
 a1 scaling factor         :     0.3981 
 s8 scaling factor         :     1.9889 
 a2 scaling factor         :     4.4211 
 ad hoc parameters k1-k3   :    16.0000     1.3333    -4.0000 

 Edisp/kcal,au: -0.000000000000  -0.000000000000 
 E6   /kcal   :  -0.000000000 
 E8   /kcal   :  -0.000000000 
 % E8         :           nan 

-------------------------   ----------------
Dispersion correction           -0.000000000
-------------------------   ----------------


-------------------------   --------------------
FINAL SINGLE POINT ENERGY     -2574.001734034733
-------------------------   --------------------


                            ***************************************
                            *     ORCA property calculations      *
                            ***************************************

                                    ---------------------
                                    Active property flags
                                    ---------------------
   (+) Dipole Moment


------------------------------------------------------------------------------
                       ORCA ELECTRIC PROPERTIES CALCULATION
------------------------------------------------------------------------------

Dipole Moment Calculation                       ... on
Quadrupole Moment Calculation                   ... off
Polarizability Calculation                      ... off
GBWName                                         ... Br.gbw
Electron density file                           ... Br.scfp.tmp

-------------
DIPOLE MOMENT
-------------
                                X             Y             Z
Electronic contribution:     -0.00000       0.00000      -0.00000
Nuclear contribution   :      0.00000       0.00000       0.00000
                        -----------------------------------------
Total Dipole Moment    :     -0.00000       0.00000      -0.00000
                        -----------------------------------------
Magnitude (a.u.)       :      0.00000
Magnitude (Debye)      :      0.00000


Timings for individual modules:

Sum of individual times         ...        5.286 sec (=   0.088 min)
GTO integral calculation        ...        0.170 sec (=   0.003 min)   3.2 %
SCF iterations                  ...        5.116 sec (=   0.085 min)  96.8 %
                             ****ORCA TERMINATED NORMALLY****
TOTAL RUN TIME: 0 days 0 hours 0 minutes 5 seconds 492 msec
